--------------------------------------------------------------------------------
Starting prologue for job 175936, user michele (734), group users (100) at Tue Nov 19 12:03:59 2019
Jobname is 'tio2-loc' in queue 'fugu.q'
running on host fugu07 (IP 192.168.4.25)
prologue finished for job 175936, status OK, spent 0.49 seconds
--------------------------------------------------------------------------------
 running on   16 total cores
 distrk:  each k-point on   16 cores,    1 groups
 distr:  one band on    4 cores,    4 groups
 using from now: INCAR     
 vasp.5.4.3 09Sep16 (build Mar 08 2017 15:13:11) gamma-only                     
  
 POSCAR found type information on POSCAR  Ti O 
 POSCAR found :  2 types and     288 ions
 scaLAPACK will be used
 LDA part: xc-table for Pade appr. of Perdew
 POSCAR, INCAR and KPOINTS ok, starting setup
 WARNING: small aliasing (wrap around) errors must be expected
 FFT: planning ...
 WAVECAR not read
 entering main loop
       N       E                     dE             d eps       ncg     rms          rms(c)
DAV:   1     0.189788806389E+05    0.18979E+05   -0.45969E+05  3744   0.104E+03
DAV:   2     0.205953290863E+04   -0.16919E+05   -0.16328E+05  4592   0.373E+02
DAV:   3    -0.277876200233E+04   -0.48383E+04   -0.47416E+04  4192   0.211E+02
DAV:   4    -0.311220520294E+04   -0.33344E+03   -0.33230E+03  4640   0.639E+01
DAV:   5    -0.311839359548E+04   -0.61884E+01   -0.61705E+01  4312   0.900E+00BRMIX: very serious problems
 the old and the new charge density differ
 old charge density:  1536.00000 new 1536.99981
    0.302E+02
RMM:   6    -0.224345854897E+04    0.87494E+03   -0.56804E+03  3696   0.787E+01    0.313E+02
RMM:   7    -0.220807022232E+04    0.35388E+02   -0.79177E+01  3767   0.118E+01    0.228E+02
RMM:   8    -0.221254462621E+04   -0.44744E+01   -0.26764E+02  3702   0.193E+01    0.414E+01
RMM:   9    -0.219853832434E+04    0.14006E+02   -0.74099E+01  3696   0.909E+00    0.125E+01
RMM:  10    -0.219864847031E+04   -0.11015E+00   -0.11452E+00  3757   0.132E+00    0.107E+01
RMM:  11    -0.219894574081E+04   -0.29727E+00   -0.57904E-01  3696   0.101E+00    0.915E+00
RMM:  12    -0.219892528618E+04    0.20455E-01   -0.16911E+00  3697   0.126E+00    0.251E+00
RMM:  13    -0.219893596543E+04   -0.10679E-01   -0.31365E-01  3721   0.688E-01    0.105E+00
RMM:  14    -0.219894112593E+04   -0.51605E-02   -0.24609E-02  3775   0.135E-01    0.756E-01
RMM:  15    -0.219894432796E+04   -0.32020E-02   -0.31833E-02  3697   0.192E-01    0.397E-01
RMM:  16    -0.219894611318E+04   -0.17852E-02   -0.80009E-03  3588   0.720E-02    0.301E-01
RMM:  17    -0.219894740640E+04   -0.12932E-02   -0.50744E-03  3405   0.640E-02    0.190E-01
RMM:  18    -0.219894833139E+04   -0.92499E-03   -0.54110E-03  3501   0.626E-02    0.954E-02
RMM:  19    -0.219894846098E+04   -0.12959E-03   -0.60970E-04  2514   0.205E-02    0.868E-02
RMM:  20    -0.219894851560E+04   -0.54615E-04   -0.47849E-04  2557   0.172E-02
   1 F= -.21989485E+04 E0= -.21989485E+04  d E =-.219895E+04  mag=     0.9897
 BRION: g(F)=  0.200E+02 g(S)=  0.000E+00
 bond charge predicted
       N       E                     dE             d eps       ncg     rms          rms(c)
DAV:   1    -0.219818189921E+04    0.76656E+00   -0.20874E+03  3696   0.576E+01    0.466E+01
RMM:   2    -0.221017708343E+04   -0.11995E+02   -0.15487E+02  3698   0.150E+01    0.308E+01
RMM:   3    -0.220395056735E+04    0.62265E+01   -0.21355E+01  3698   0.542E+00    0.179E+01
RMM:   4    -0.220349968589E+04    0.45088E+00   -0.47083E+00  3700   0.238E+00    0.116E+01
RMM:   5    -0.220325882644E+04    0.24086E+00   -0.39446E+00  3696   0.210E+00    0.572E+00
RMM:   6    -0.220328600554E+04   -0.27179E-01   -0.92177E-01  3698   0.112E+00    0.364E+00
RMM:   7    -0.220328902248E+04   -0.30169E-02   -0.19208E-01  3727   0.395E-01    0.300E+00
RMM:   8    -0.220323377673E+04    0.55246E-01   -0.19337E-01  3697   0.475E-01    0.138E+00
RMM:   9    -0.220322765798E+04    0.61188E-02   -0.84069E-02  3703   0.301E-01    0.485E-01
RMM:  10    -0.220322969078E+04   -0.20328E-02   -0.13779E-02  3791   0.114E-01    0.260E-01
RMM:  11    -0.220323059537E+04   -0.90459E-03   -0.19941E-03  3376   0.350E-02    0.201E-01
RMM:  12    -0.220323119815E+04   -0.60277E-03   -0.12871E-03  3131   0.261E-02    0.131E-01
RMM:  13    -0.220323184783E+04   -0.64969E-03   -0.28079E-03  3321   0.388E-02    0.713E-02
RMM:  14    -0.220323215837E+04   -0.31053E-03   -0.14324E-03  2885   0.246E-02    0.601E-02
RMM:  15    -0.220323239510E+04   -0.23674E-03   -0.11419E-03  2330   0.159E-02    0.444E-02
RMM:  16    -0.220323256659E+04   -0.17149E-03   -0.77722E-04  2233   0.121E-02    0.383E-02
RMM:  17    -0.220323270446E+04   -0.13787E-03   -0.63179E-04  2219   0.991E-03    0.300E-02
RMM:  18    -0.220323287101E+04   -0.16655E-03   -0.11785E-03  2302   0.112E-02    0.264E-02
RMM:  19    -0.220323297343E+04   -0.10241E-03   -0.68003E-04  2209   0.943E-03    0.206E-02
RMM:  20    -0.220323304850E+04   -0.75072E-04   -0.44471E-04  2094   0.725E-03
   2 F= -.22032330E+04 E0= -.22032330E+04  d E =-.428453E+01  mag=     1.0145
 BRION: g(F)=  0.219E+02 g(S)=  0.000E+00 retain N=  1 mean eig= 0.49
 eig:   0.493
 bond charge predicted
       N       E                     dE             d eps       ncg     rms          rms(c)
DAV:   1    -0.220830419115E+04   -0.50712E+01   -0.37927E+02  3704   0.242E+01    0.194E+01
RMM:   2    -0.220672254000E+04    0.15817E+01   -0.47537E+01  3698   0.742E+00    0.133E+01
RMM:   3    -0.220727290276E+04   -0.55036E+00   -0.42979E+00  3696   0.231E+00    0.860E+00
RMM:   4    -0.220676253499E+04    0.51037E+00   -0.15542E+00  3697   0.112E+00    0.595E+00
RMM:   5    -0.220678821924E+04   -0.25684E-01   -0.25119E+00  3727   0.144E+00    0.673E+00
RMM:   6    -0.220703950693E+04   -0.25129E+00   -0.20072E+00  3728   0.923E-01    0.237E+00
RMM:   7    -0.220713184823E+04   -0.92341E-01   -0.93895E-01  3702   0.477E-01    0.206E+00
RMM:   8    -0.220709828953E+04    0.33559E-01   -0.34988E-01  3697   0.413E-01    0.128E+00
RMM:   9    -0.220708535949E+04    0.12930E-01   -0.96345E-01  3697   0.442E-01    0.772E-01
RMM:  10    -0.220709147482E+04   -0.61153E-02   -0.78003E-02  3871   0.133E-01    0.673E-01
RMM:  11    -0.220710737900E+04   -0.15904E-01   -0.64889E-02  3700   0.129E-01    0.489E-01
RMM:  12    -0.220712055916E+04   -0.13180E-01   -0.20270E-02  3696   0.111E-01    0.299E-01
RMM:  13    -0.220712612758E+04   -0.55684E-02   -0.13514E-02  3523   0.820E-02    0.153E-01
RMM:  14    -0.220712777780E+04   -0.16502E-02   -0.65338E-03  3354   0.446E-02    0.908E-02
RMM:  15    -0.220712859870E+04   -0.82090E-03   -0.73804E-03  3225   0.392E-02    0.468E-02
RMM:  16    -0.220712862799E+04   -0.29294E-04   -0.65199E-04  2290   0.141E-02
   3 F= -.22071286E+04 E0= -.22071286E+04  d E =-.389558E+01  mag=     0.9978
 BRION: g(F)=  0.457E+01 g(S)=  0.000E+00 retain N=  2 mean eig= 1.58
 eig:   0.354  2.814
 bond charge predicted
       N       E                     dE             d eps       ncg     rms          rms(c)
DAV:   1    -0.220830657985E+04   -0.11780E+01   -0.12325E+02  3824   0.140E+01    0.999E+00
RMM:   2    -0.220840294546E+04   -0.96366E-01   -0.12838E+01  3698   0.362E+00    0.652E+00
RMM:   3    -0.220838355639E+04    0.19389E-01   -0.47582E+00  3697   0.134E+00    0.451E+00
RMM:   4    -0.220830269738E+04    0.80859E-01   -0.85870E-01  3697   0.564E-01    0.273E+00
RMM:   5    -0.220828822971E+04    0.14468E-01   -0.28008E-01  3698   0.325E-01    0.108E+00
RMM:   6    -0.220828762427E+04    0.60544E-03   -0.55263E-02  3698   0.182E-01    0.418E-01
RMM:   7    -0.220829270386E+04   -0.50796E-02   -0.23904E-02  3717   0.974E-02    0.241E-01
RMM:   8    -0.220829846260E+04   -0.57587E-02   -0.86596E-02  3561   0.876E-02    0.227E-01
RMM:   9    -0.220829935756E+04   -0.89496E-03   -0.74872E-03  3076   0.386E-02    0.173E-01
RMM:  10    -0.220829974572E+04   -0.38816E-03   -0.21328E-03  2675   0.232E-02    0.137E-01
RMM:  11    -0.220830069656E+04   -0.95084E-03   -0.41753E-03  2547   0.212E-02    0.130E-01
RMM:  12    -0.220830175268E+04   -0.10561E-02   -0.64962E-03  2767   0.242E-02    0.112E-01
RMM:  13    -0.220830254221E+04   -0.78953E-03   -0.64191E-03  2727   0.249E-02    0.100E-01
RMM:  14    -0.220830316610E+04   -0.62389E-03   -0.29479E-03  2542   0.195E-02    0.819E-02
RMM:  15    -0.220830386253E+04   -0.69644E-03   -0.45926E-03  2584   0.193E-02    0.739E-02
RMM:  16    -0.220830425478E+04   -0.39225E-03   -0.23598E-03  2375   0.155E-02    0.629E-02
RMM:  17    -0.220830462814E+04   -0.37336E-03   -0.21862E-03  2358   0.134E-02    0.574E-02
RMM:  18    -0.220830527784E+04   -0.64970E-03   -0.82691E-03  2736   0.239E-02    0.470E-02
RMM:  19    -0.220830548881E+04   -0.21097E-03   -0.21990E-03  2305   0.146E-02    0.392E-02
RMM:  20    -0.220830559621E+04   -0.10740E-03   -0.80245E-04  2106   0.899E-03    0.360E-02
RMM:  21    -0.220830562958E+04   -0.33377E-04   -0.17260E-04  1748   0.556E-03
   4 F= -.22083056E+04 E0= -.22083056E+04  d E =-.117700E+01  mag=     1.0116
 BRION: g(F)=  0.110E+01 g(S)=  0.000E+00 retain N=  2 mean eig= 0.99
 eig:   0.286  1.688
 bond charge predicted
       N       E                     dE             d eps       ncg     rms          rms(c)
DAV:   1    -0.220870621383E+04   -0.40062E+00   -0.50844E+01  3808   0.903E+00    0.589E+00
RMM:   2    -0.220872812618E+04   -0.21912E-01   -0.33925E+00  3698   0.206E+00    0.457E+00
RMM:   3    -0.220864081894E+04    0.87307E-01   -0.31265E+00  3698   0.829E-01    0.283E+00
RMM:   4    -0.220871441513E+04   -0.73596E-01   -0.13326E+00  3698   0.596E-01    0.178E+00
RMM:   5    -0.220849965515E+04    0.21476E+00   -0.31427E+00  3699   0.706E-01    0.167E+00
RMM:   6    -0.220872797168E+04   -0.22832E+00   -0.19762E+00  3698   0.569E-01    0.620E-01
RMM:   7    -0.220868650380E+04    0.41468E-01   -0.11445E+00  3697   0.387E-01    0.809E-01
RMM:   8    -0.220875670161E+04   -0.70198E-01   -0.10011E+00  3697   0.331E-01    0.266E-01
RMM:   9    -0.220874752041E+04    0.91812E-02   -0.20925E-02  3407   0.824E-02    0.166E-01
RMM:  10    -0.220874934720E+04   -0.18268E-02   -0.63678E-03  3030   0.302E-02    0.123E-01
RMM:  11    -0.220873802808E+04    0.11319E-01   -0.70377E-02  3483   0.903E-02    0.273E-01
RMM:  12    -0.220874153683E+04   -0.35087E-02   -0.21660E-03  2478   0.228E-02    0.213E-01
RMM:  13    -0.220874148634E+04    0.50491E-04   -0.18521E-04  2182   0.880E-03
   5 F= -.22087415E+04 E0= -.22087415E+04  d E =-.435857E+00  mag=     1.0174
 BRION: g(F)=  0.678E+00 g(S)=  0.000E+00 retain N=  3 mean eig= 2.02
 eig:   5.513  0.272  0.272
 bond charge predicted
       N       E                     dE             d eps       ncg     rms          rms(c)
DAV:   1    -0.220902450909E+04   -0.28297E+00   -0.56338E+01  3696   0.953E+00    0.579E+00
RMM:   2    -0.220568949783E+04    0.33350E+01   -0.12590E+01  3700   0.257E+00    0.532E+00
RMM:   3    -0.220854417976E+04   -0.28547E+01   -0.14572E+00  3696   0.831E-01    0.309E+00
RMM:   4    -0.220907760167E+04   -0.53342E+00   -0.88150E-01  3697   0.507E-01    0.156E+00
RMM:   5    -0.220893080587E+04    0.14680E+00   -0.67342E-01  3697   0.325E-01    0.137E+00
RMM:   6    -0.220890410021E+04    0.26706E-01   -0.93652E-02  3709   0.153E-01    0.129E+00
RMM:   7    -0.220899627657E+04   -0.92176E-01   -0.34762E-02  3660   0.107E-01    0.955E-01
RMM:   8    -0.220895672984E+04    0.39547E-01   -0.70369E-03  3305   0.506E-02    0.110E+00
RMM:   9    -0.220899126241E+04   -0.34533E-01   -0.77166E-03  2988   0.380E-02    0.966E-01
RMM:  10    -0.220902127165E+04   -0.30009E-01   -0.12638E-02  3313   0.495E-02    0.837E-01
RMM:  11    -0.220900228659E+04    0.18985E-01   -0.42676E-03  2739   0.278E-02    0.913E-01
RMM:  12    -0.220900387923E+04   -0.15926E-02   -0.12694E-04  2170   0.860E-03    0.905E-01
RMM:  13    -0.220899866766E+04    0.52116E-02   -0.12059E-03  2333   0.126E-02    0.924E-01
RMM:  14    -0.220899964951E+04   -0.98185E-03   -0.16572E-04  2039   0.736E-03    0.921E-01
RMM:  15    -0.220900305126E+04   -0.34018E-02   -0.14287E-04  1625   0.532E-03    0.907E-01
RMM:  16    -0.220902159577E+04   -0.18545E-01   -0.47509E-03  2730   0.269E-02    0.830E-01
RMM:  17    -0.220901574783E+04    0.58479E-02   -0.53974E-04  2217   0.118E-02    0.854E-01
RMM:  18    -0.220900666129E+04    0.90865E-02   -0.63025E-04  2274   0.122E-02    0.894E-01
RMM:  19    -0.220900185020E+04    0.48111E-02   -0.26772E-04  2004   0.791E-03    0.914E-01
RMM:  20    -0.220899950955E+04    0.23407E-02   -0.31615E-04  2187   0.812E-03    0.922E-01
RMM:  21    -0.220900842440E+04   -0.89149E-02   -0.53989E-04  2294   0.132E-02    0.884E-01
RMM:  22    -0.220901163915E+04   -0.32147E-02   -0.19351E-04  1934   0.744E-03    0.871E-01
RMM:  23    -0.220901369756E+04   -0.20584E-02   -0.17988E-04  1970   0.637E-03    0.861E-01
RMM:  24    -0.220902192843E+04   -0.82309E-02   -0.22938E-03  2531   0.185E-02    0.823E-01
RMM:  25    -0.220905577163E+04   -0.33843E-01   -0.17270E-02  3237   0.534E-02    0.651E-01
RMM:  26    -0.220912040582E+04   -0.64634E-01   -0.28724E-01  3653   0.189E-01    0.199E-01
RMM:  27    -0.220912242635E+04   -0.20205E-02   -0.24777E-02  3323   0.682E-02    0.162E-01
RMM:  28    -0.220912673247E+04   -0.43061E-02   -0.22674E-02  3077   0.407E-02    0.139E-01
RMM:  29    -0.220913043488E+04   -0.37024E-02   -0.24051E-02  3064   0.409E-02    0.125E-01
RMM:  30    -0.220913576922E+04   -0.53343E-02   -0.54842E-02  3314   0.603E-02    0.108E-01
RMM:  31    -0.220913880409E+04   -0.30349E-02   -0.30919E-02  3139   0.491E-02    0.916E-02
RMM:  32    -0.220914200107E+04   -0.31970E-02   -0.38368E-02  3266   0.507E-02    0.704E-02
RMM:  33    -0.220914456315E+04   -0.25621E-02   -0.43668E-02  3212   0.547E-02    0.563E-02
RMM:  34    -0.220914576861E+04   -0.12055E-02   -0.18605E-02  2942   0.368E-02    0.396E-02
RMM:  35    -0.220914687141E+04   -0.11028E-02   -0.23169E-02  3075   0.379E-02    0.348E-02
RMM:  36    -0.220914727145E+04   -0.40003E-03   -0.83255E-03  2616   0.241E-02    0.224E-02
RMM:  37    -0.220914768594E+04   -0.41449E-03   -0.10501E-02  2731   0.237E-02    0.207E-02
RMM:  38    -0.220914793562E+04   -0.24968E-03   -0.91337E-03  2609   0.232E-02    0.179E-02
RMM:  39    -0.220914788413E+04    0.51492E-04   -0.36731E-04  2064   0.909E-03
   6 F= -.22091479E+04 E0= -.22091479E+04  d E =-.406398E+00  mag=     1.0048
 BRION: g(F)=  0.414E+00 g(S)=  0.000E+00 retain N=  4 mean eig= 2.15
 eig:   6.158  1.628  0.407  0.407
 bond charge predicted
       N       E                     dE             d eps       ncg     rms          rms(c)
DAV:   1    -0.220931359851E+04   -0.16566E+00   -0.91147E+01  3696   0.121E+01    0.707E+00
RMM:   2    -0.220950434940E+04   -0.19075E+00   -0.10123E+01  3697   0.239E+00    0.370E+00
RMM:   3    -0.220830730141E+04    0.11970E+01   -0.76194E+00  3756   0.137E+00    0.516E+00
RMM:   4    -0.220955198142E+04   -0.12447E+01   -0.28715E+00  3722   0.543E-01    0.241E+00
RMM:   5    -0.220956324275E+04   -0.11261E-01   -0.17150E+00  3700   0.429E-01    0.153E+00
RMM:   6    -0.220927237687E+04    0.29087E+00   -0.77426E+00  3751   0.823E-01    0.146E+00
RMM:   7    -0.220951512451E+04   -0.24275E+00   -0.60376E+00  3706   0.798E-01    0.663E-01
RMM:   8    -0.220951362781E+04    0.14967E-02   -0.26910E+00  3700   0.511E-01    0.562E-01
RMM:   9    -0.220952987267E+04   -0.16245E-01   -0.66906E-01  3690   0.256E-01    0.432E-01
RMM:  10    -0.220953025071E+04   -0.37805E-03   -0.23820E-02  3405   0.810E-02    0.304E-01
RMM:  11    -0.220953702262E+04   -0.67719E-02   -0.14890E-01  3490   0.959E-02    0.242E-01
RMM:  12    -0.220953829913E+04   -0.12765E-02   -0.25844E-02  3378   0.727E-02    0.149E-01
RMM:  13    -0.220953694200E+04    0.13571E-02   -0.33788E-02  3268   0.533E-02    0.118E-01
RMM:  14    -0.220953779123E+04   -0.84923E-03   -0.58969E-03  2632   0.248E-02    0.915E-02
RMM:  15    -0.220953787006E+04   -0.78836E-04   -0.34134E-04  2318   0.141E-02
   7 F= -.22095379E+04 E0= -.22095379E+04  d E =-.389986E+00  mag=     0.9930
 BRION: g(F)=  0.221E+00 g(S)=  0.000E+00 retain N=  5 mean eig= 2.52
 eig:   5.531  5.531  0.462  0.462  0.605
 bond charge predicted
       N       E                     dE             d eps       ncg     rms          rms(c)
DAV:   1    -0.220960428264E+04   -0.66491E-01   -0.67917E+01  3696   0.105E+01    0.611E+00
RMM:   2    -0.220966220708E+04   -0.57924E-01   -0.93062E+00  3698   0.209E+00    0.258E+00
RMM:   3    -0.220595568906E+04    0.37065E+01   -0.96039E+00  3885   0.182E+00    0.660E+00
RMM:   4    -0.220972633354E+04   -0.37706E+01   -0.35080E+00  3696   0.981E-01    0.141E+00
RMM:   5    -0.220978377819E+04   -0.57445E-01   -0.73731E-01  3716   0.450E-01    0.125E+00
RMM:   6    -0.220940458512E+04    0.37919E+00   -0.71271E+00  3742   0.811E-01    0.193E+00
RMM:   7    -0.220974361288E+04   -0.33903E+00   -0.14636E+00  3697   0.527E-01    0.869E-01
RMM:   8    -0.220970027374E+04    0.43339E-01   -0.79386E-01  3695   0.305E-01    0.935E-01
RMM:   9    -0.220969415554E+04    0.61182E-02   -0.54577E-02  3560   0.116E-01    0.791E-01
RMM:  10    -0.220972601475E+04   -0.31859E-01   -0.10780E-01  3630   0.148E-01    0.404E-01
RMM:  11    -0.220969670387E+04    0.29311E-01   -0.12843E-01  3555   0.126E-01    0.562E-01
RMM:  12    -0.220971632583E+04   -0.19622E-01   -0.25984E-02  3322   0.674E-02    0.347E-01
RMM:  13    -0.220972077574E+04   -0.44499E-02   -0.14920E-02  3110   0.378E-02    0.299E-01
RMM:  14    -0.220973390586E+04   -0.13130E-01   -0.89722E-02  3381   0.802E-02    0.224E-01
RMM:  15    -0.220973778918E+04   -0.38833E-02   -0.22340E-02  2949   0.405E-02    0.224E-01
RMM:  16    -0.220973976984E+04   -0.19807E-02   -0.45423E-03  2507   0.195E-02    0.223E-01
RMM:  17    -0.220974480874E+04   -0.50389E-02   -0.17405E-02  2864   0.318E-02    0.214E-01
RMM:  18    -0.220975171490E+04   -0.69062E-02   -0.30238E-02  3195   0.464E-02    0.192E-01
RMM:  19    -0.220975766711E+04   -0.59522E-02   -0.39043E-02  3173   0.515E-02    0.174E-01
RMM:  20    -0.220975789102E+04   -0.22390E-03   -0.15281E-03  2390   0.172E-02    0.178E-01
RMM:  21    -0.220975761800E+04    0.27302E-03   -0.67502E-05  2010   0.695E-03    0.183E-01
RMM:  22    -0.220975764179E+04   -0.23789E-04   -0.18133E-05  1365   0.315E-03
   8 F= -.22097576E+04 E0= -.22097576E+04  d E =-.219772E+00  mag=     1.0240
 BRION: g(F)=  0.133E+00 g(S)=  0.000E+00 retain N=  6 mean eig= 3.05
 eig:   7.671  7.671  0.882  0.882  0.596  0.596
 bond charge predicted
       N       E                     dE             d eps       ncg     rms          rms(c)
DAV:   1    -0.220980037108E+04   -0.42753E-01   -0.40143E+01  3696   0.803E+00    0.470E+00
RMM:   2    -0.220747068054E+04    0.23297E+01   -0.15146E+01  3764   0.216E+00    0.411E+00
RMM:   3    -0.220949038852E+04   -0.20197E+01   -0.46062E+00  3707   0.134E+00    0.315E+00
RMM:   4    -0.220977073906E+04   -0.28035E+00   -0.65703E-01  3769   0.342E-01    0.139E+00
RMM:   5    -0.220985930385E+04   -0.88565E-01   -0.14324E-01  3696   0.280E-01    0.933E-01
RMM:   6    -0.220989731277E+04   -0.38009E-01   -0.27953E-01  3750   0.262E-01    0.561E-01
RMM:   7    -0.220989672297E+04    0.58980E-03   -0.16555E-01  3721   0.226E-01    0.458E-01
RMM:   8    -0.220989075105E+04    0.59719E-02   -0.33233E-02  3479   0.944E-02    0.481E-01
RMM:   9    -0.220988888095E+04    0.18701E-02   -0.14756E-02  3176   0.432E-02    0.478E-01
RMM:  10    -0.220986976082E+04    0.19120E-01   -0.28411E-01  3586   0.141E-01    0.536E-01
RMM:  11    -0.220984860131E+04    0.21160E-01   -0.15174E-01  3465   0.115E-01    0.585E-01
RMM:  12    -0.220983608006E+04    0.12521E-01   -0.66065E-02  3404   0.781E-02    0.604E-01
RMM:  13    -0.220982816495E+04    0.79151E-02   -0.56448E-02  3328   0.714E-02    0.579E-01
RMM:  14    -0.220982700918E+04    0.11558E-02   -0.69888E-03  2725   0.317E-02    0.560E-01
RMM:  15    -0.220983340600E+04   -0.63968E-02   -0.19280E-03  2524   0.218E-02    0.521E-01
RMM:  16    -0.220981183022E+04    0.21576E-01   -0.11990E-01  3437   0.941E-02    0.595E-01
RMM:  17    -0.220979276965E+04    0.19061E-01   -0.53929E-02  3293   0.720E-02    0.655E-01
RMM:  18    -0.220981624580E+04   -0.23476E-01   -0.39627E-02  3186   0.577E-02    0.557E-01
RMM:  19    -0.220979910239E+04    0.17143E-01   -0.26002E-02  3054   0.465E-02    0.627E-01
RMM:  20    -0.220979554778E+04    0.35546E-02   -0.30766E-03  2409   0.193E-02    0.633E-01
RMM:  21    -0.220979974593E+04   -0.41981E-02   -0.15346E-03  2197   0.139E-02    0.619E-01
RMM:  22    -0.220980074038E+04   -0.99444E-03   -0.27295E-04  1623   0.518E-03    0.616E-01
RMM:  23    -0.220974423821E+04    0.56502E-01   -0.24446E-01  3565   0.142E-01    0.824E-01
RMM:  24    -0.220973701003E+04    0.72282E-02   -0.88255E-03  2917   0.476E-02    0.838E-01
RMM:  25    -0.220974209578E+04   -0.50857E-02   -0.82298E-03  2698   0.308E-02    0.837E-01
RMM:  26    -0.220975168316E+04   -0.95874E-02   -0.58142E-03  2576   0.241E-02    0.807E-01
RMM:  27    -0.220974778100E+04    0.39022E-02   -0.17984E-04  2027   0.973E-03    0.826E-01
RMM:  28    -0.220975622523E+04   -0.84442E-02   -0.20322E-03  2320   0.172E-02    0.791E-01
RMM:  29    -0.220975804907E+04   -0.18238E-02   -0.30507E-04  1833   0.764E-03    0.784E-01
RMM:  30    -0.220976848964E+04   -0.10441E-01   -0.57491E-03  2599   0.241E-02    0.744E-01
RMM:  31    -0.220977431601E+04   -0.58264E-02   -0.26462E-03  2351   0.174E-02    0.724E-01
RMM:  32    -0.220978594896E+04   -0.11633E-01   -0.91041E-03  2731   0.287E-02    0.675E-01
RMM:  33    -0.220978313569E+04    0.28133E-02   -0.16094E-03  2261   0.165E-02    0.675E-01
RMM:  34    -0.220979742408E+04   -0.14288E-01   -0.21831E-02  3005   0.421E-02    0.615E-01
RMM:  35    -0.220981079388E+04   -0.13370E-01   -0.26069E-02  3129   0.462E-02    0.555E-01
RMM:  36    -0.220982757941E+04   -0.16786E-01   -0.55090E-02  3263   0.643E-02    0.485E-01
RMM:  37    -0.220983593413E+04   -0.83547E-02   -0.22700E-02  3029   0.450E-02    0.459E-01
RMM:  38    -0.220988265369E+04   -0.46720E-01   -0.12668E+00  3689   0.291E-01    0.423E-01
RMM:  39    -0.220988209021E+04    0.56348E-03   -0.23432E-02  3257   0.825E-02    0.386E-01
RMM:  40    -0.220987926685E+04    0.28234E-02   -0.39847E-03  2562   0.257E-02    0.415E-01
RMM:  41    -0.220988245629E+04   -0.31894E-02   -0.21914E-02  3123   0.437E-02    0.441E-01
RMM:  42    -0.220987722806E+04    0.52282E-02   -0.88662E-02  3469   0.925E-02    0.589E-01
RMM:  43    -0.220987817871E+04   -0.95066E-03   -0.16724E-03  2534   0.257E-02    0.586E-01
RMM:  44    -0.220987797131E+04    0.20741E-03   -0.30508E-04  2090   0.825E-03    0.589E-01
RMM:  45    -0.220987797895E+04   -0.76423E-05   -0.20862E-05  1664   0.434E-03
   9 F= -.22098780E+04 E0= -.22098780E+04  d E =-.120337E+00  mag=     1.0920
 BRION: g(F)=  0.782E-01 g(S)=  0.000E+00 retain N=  6 mean eig= 3.00
 eig:   7.189  7.189  1.138  1.138  0.683  0.683
 bond charge predicted
       N       E                     dE             d eps       ncg     rms          rms(c)
DAV:   1    -0.220989270475E+04   -0.14733E-01   -0.33935E+01  3696   0.739E+00    0.441E+00
RMM:   2    -0.220443227948E+04    0.54604E+01   -0.16081E+01  4048   0.270E+00    0.871E+00
RMM:   3    -0.220934261029E+04   -0.49103E+01   -0.17453E+01  3756   0.248E+00    0.450E+00
RMM:   4    -0.220907576741E+04    0.26684E+00   -0.66067E+00  3707   0.132E+00    0.411E+00
RMM:   5    -0.220985619684E+04   -0.78043E+00   -0.36948E-01  3702   0.506E-01    0.225E+00
RMM:   6    -0.220979896565E+04    0.57231E-01   -0.54347E-01  3773   0.460E-01    0.164E+00
RMM:   7    -0.221001735548E+04   -0.21839E+00   -0.34674E-01  3708   0.387E-01    0.999E-01
RMM:   8    -0.220958834576E+04    0.42901E+00   -0.20833E+00  3697   0.519E-01    0.211E+00
RMM:   9    -0.221000075108E+04   -0.41241E+00   -0.57632E-01  3695   0.357E-01    0.939E-01
RMM:  10    -0.220985418180E+04    0.14657E+00   -0.41758E-01  3673   0.233E-01    0.134E+00
RMM:  11    -0.220999219267E+04   -0.13801E+00   -0.78778E-02  3654   0.175E-01    0.890E-01
RMM:  12    -0.221000387405E+04   -0.11681E-01   -0.25487E-02  3354   0.651E-02    0.830E-01
RMM:  13    -0.220998959785E+04    0.14276E-01   -0.28277E-03  2832   0.305E-02    0.856E-01
RMM:  14    -0.221002163975E+04   -0.32042E-01   -0.16677E-02  3390   0.800E-02    0.767E-01
RMM:  15    -0.221000373787E+04    0.17902E-01   -0.94125E-02  3401   0.886E-02    0.801E-01
RMM:  16    -0.220998712263E+04    0.16615E-01   -0.49734E-02  3318   0.724E-02    0.833E-01
RMM:  17    -0.220999092531E+04   -0.38027E-02   -0.37530E-03  2596   0.249E-02    0.815E-01
RMM:  18    -0.220999079427E+04    0.13104E-03   -0.57683E-04  2104   0.935E-03    0.815E-01
RMM:  19    -0.220999260456E+04   -0.18103E-02   -0.10082E-02  3162   0.360E-02    0.744E-01
RMM:  20    -0.220999293531E+04   -0.33075E-03   -0.10039E-03  2300   0.136E-02    0.742E-01
RMM:  21    -0.220999944567E+04   -0.65104E-02   -0.44551E-03  2589   0.230E-02    0.723E-01
RMM:  22    -0.220999248822E+04    0.69575E-02   -0.21348E-03  2546   0.212E-02    0.748E-01
RMM:  23    -0.221000207486E+04   -0.95866E-02   -0.13384E-03  2447   0.209E-02    0.698E-01
RMM:  24    -0.221001056492E+04   -0.84901E-02   -0.21845E-03  2783   0.279E-02    0.630E-01
RMM:  25    -0.221001470683E+04   -0.41419E-02   -0.11203E-03  2601   0.218E-02    0.583E-01
RMM:  26    -0.221002036448E+04   -0.56576E-02   -0.20105E-03  2656   0.234E-02    0.537E-01
RMM:  27    -0.221002150661E+04   -0.11421E-02   -0.62599E-04  2191   0.137E-02    0.515E-01
RMM:  28    -0.221002168546E+04   -0.17884E-03   -0.16662E-04  2060   0.886E-03    0.499E-01
RMM:  29    -0.221002479994E+04   -0.31145E-02   -0.99388E-04  2457   0.170E-02    0.456E-01
RMM:  30    -0.221002500753E+04   -0.20760E-03   -0.49317E-04  2208   0.123E-02    0.436E-01
RMM:  31    -0.221002616747E+04   -0.11599E-02   -0.18682E-03  2384   0.147E-02    0.415E-01
RMM:  32    -0.221002666979E+04   -0.50232E-03   -0.35338E-03  2490   0.181E-02    0.392E-01
RMM:  33    -0.221002748327E+04   -0.81348E-03   -0.56315E-04  2125   0.115E-02    0.372E-01
RMM:  34    -0.221003031998E+04   -0.28367E-02   -0.15539E-01  3629   0.158E-01    0.173E-01
RMM:  35    -0.221002981233E+04    0.50765E-03   -0.56093E-03  3047   0.398E-02    0.134E-01
RMM:  36    -0.221002963213E+04    0.18020E-03   -0.34522E-03  2484   0.179E-02    0.121E-01
RMM:  37    -0.221002949342E+04    0.13872E-03   -0.46641E-04  2132   0.958E-03    0.117E-01
RMM:  38    -0.221002876921E+04    0.72421E-03   -0.23014E-03  2251   0.123E-02    0.122E-01
RMM:  39    -0.221003019560E+04   -0.14264E-02   -0.28210E-03  2500   0.213E-02    0.847E-02
RMM:  40    -0.221002892238E+04    0.12732E-02   -0.81876E-03  2629   0.248E-02    0.920E-02
RMM:  41    -0.221002868287E+04    0.23950E-03   -0.13214E-03  2136   0.115E-02    0.868E-02
RMM:  42    -0.221002938465E+04   -0.70177E-03   -0.13061E-03  2008   0.108E-02    0.728E-02
RMM:  43    -0.221002990643E+04   -0.52178E-03   -0.18015E-03  2139   0.101E-02    0.700E-02
RMM:  44    -0.221003122822E+04   -0.13218E-02   -0.94222E-03  2560   0.223E-02    0.615E-02
RMM:  45    -0.221003181441E+04   -0.58618E-03   -0.40452E-03  2339   0.165E-02    0.597E-02
RMM:  46    -0.221003215757E+04   -0.34316E-03   -0.26844E-03  2270   0.127E-02    0.590E-02
RMM:  47    -0.221003223195E+04   -0.74381E-04   -0.71007E-04  1863   0.788E-03
  10 F= -.22100322E+04 E0= -.22100322E+04  d E =-.154253E+00  mag=     0.9834
 BRION: g(F)=  0.532E-01 g(S)=  0.000E+00 retain N=  6 mean eig= 3.06
 eig:   7.046  7.046  1.312  1.312  0.811  0.811
 bond charge predicted
       N       E                     dE             d eps       ncg     rms          rms(c)
DAV:   1    -0.221004602053E+04   -0.13863E-01   -0.19884E+01  3696   0.565E+00    0.335E+00
RMM:   2    -0.220980165487E+04    0.24437E+00   -0.83049E+00  3703   0.142E+00    0.351E+00
RMM:   3    -0.220962898852E+04    0.17267E+00   -0.60926E+00  3709   0.104E+00    0.377E+00
RMM:   4    -0.221006457944E+04   -0.43559E+00   -0.18783E+00  3750   0.580E-01    0.167E+00
RMM:   5    -0.221009302930E+04   -0.28450E-01   -0.15619E+00  3698   0.478E-01    0.940E-01
RMM:   6    -0.221008765602E+04    0.53733E-02   -0.17558E-01  3756   0.192E-01    0.513E-01
RMM:   7    -0.221009809438E+04   -0.10438E-01   -0.31855E-01  3696   0.170E-01    0.223E-01
RMM:   8    -0.221009807305E+04    0.21337E-04   -0.33474E-02  3291   0.606E-02    0.158E-01
RMM:   9    -0.221010219031E+04   -0.41173E-02   -0.34383E-01  3574   0.141E-01    0.123E-01
RMM:  10    -0.221010162058E+04    0.56973E-03   -0.44563E-02  3170   0.566E-02    0.894E-02
RMM:  11    -0.221010143602E+04    0.18456E-03   -0.44980E-03  2500   0.229E-02    0.552E-02
RMM:  12    -0.221010128277E+04    0.15325E-03   -0.61862E-03  2528   0.218E-02    0.454E-02
RMM:  13    -0.221010152125E+04   -0.23848E-03   -0.15563E-03  2184   0.123E-02    0.271E-02
RMM:  14    -0.221010150156E+04    0.19689E-04   -0.97714E-05  1602   0.448E-03
  11 F= -.22101015E+04 E0= -.22101015E+04  d E =-.692696E-01  mag=     0.9829
 BRION: g(F)=  0.417E-01 g(S)=  0.000E+00 retain N=  6 mean eig= 2.89
 eig:   6.443  6.443  1.416  1.416  0.806  0.806
 bond charge predicted
       N       E                     dE             d eps       ncg     rms          rms(c)
DAV:   1    -0.221011504655E+04   -0.13525E-01   -0.11535E+01  3736   0.430E+00    0.258E+00
RMM:   2    -0.221014739089E+04   -0.32344E-01   -0.13784E+00  3697   0.838E-01    0.901E-01
RMM:   3    -0.221014974609E+04   -0.23552E-02   -0.78917E-01  3697   0.283E-01    0.605E-01
RMM:   4    -0.221014299764E+04    0.67484E-02   -0.19703E-02  3731   0.108E-01    0.370E-01
RMM:   5    -0.221014473168E+04   -0.17340E-02   -0.62100E-03  3420   0.489E-02    0.233E-01
RMM:   6    -0.221014422640E+04    0.50528E-03   -0.73072E-03  2977   0.316E-02    0.159E-01
RMM:   7    -0.221014442535E+04   -0.19895E-03   -0.91155E-03  3114   0.383E-02    0.890E-02
RMM:   8    -0.221014439086E+04    0.34488E-04   -0.42363E-03  2772   0.264E-02    0.551E-02
RMM:   9    -0.221014442236E+04   -0.31497E-04   -0.84870E-04  2373   0.151E-02
  12 F= -.22101444E+04 E0= -.22101444E+04  d E =-.429208E-01  mag=     0.9924
 BRION: g(F)=  0.318E-01 g(S)=  0.000E+00 retain N=  6 mean eig= 3.13
 eig:   7.056  7.056  1.506  1.506  0.843  0.843
 bond charge predicted
       N       E                     dE             d eps       ncg     rms          rms(c)
DAV:   1    -0.221014510887E+04   -0.71801E-03   -0.14976E+01  3704   0.490E+00    0.293E+00
RMM:   2    -0.221019151009E+04   -0.46401E-01   -0.78978E-01  3697   0.875E-01    0.666E-01
RMM:   3    -0.221018497553E+04    0.65346E-02   -0.11190E-01  3697   0.210E-01    0.436E-01
RMM:   4    -0.221018371361E+04    0.12619E-02   -0.23094E-02  3757   0.656E-02    0.293E-01
RMM:   5    -0.221018134996E+04    0.23637E-02   -0.96778E-02  3522   0.906E-02    0.217E-01
RMM:   6    -0.221018392542E+04   -0.25755E-02   -0.87254E-03  3197   0.419E-02    0.118E-01
RMM:   7    -0.221018376968E+04    0.15574E-03   -0.69076E-03  2972   0.347E-02    0.684E-02
RMM:   8    -0.221018416954E+04   -0.39986E-03   -0.59668E-03  2700   0.247E-02    0.340E-02
RMM:   9    -0.221018407288E+04    0.96658E-04   -0.69697E-04  2262   0.120E-02
  13 F= -.22101841E+04 E0= -.22101841E+04  d E =-.396505E-01  mag=     0.9950
 BRION: g(F)=  0.218E-01 g(S)=  0.000E+00 retain N=  6 mean eig= 3.51
 eig:   7.870  7.870  1.760  1.760  0.895  0.895
 bond charge predicted
       N       E                     dE             d eps       ncg     rms          rms(c)
DAV:   1    -0.221018526083E+04   -0.10913E-02   -0.94047E+00  3728   0.388E+00    0.232E+00
RMM:   2    -0.221021274168E+04   -0.27481E-01   -0.50981E-01  3697   0.698E-01    0.536E-01
RMM:   3    -0.221020951928E+04    0.32224E-02   -0.11860E-01  3697   0.178E-01    0.329E-01
RMM:   4    -0.221021055679E+04   -0.10375E-02   -0.80432E-02  3730   0.769E-02    0.224E-01
RMM:   5    -0.221020962665E+04    0.93013E-03   -0.57695E-03  3193   0.378E-02    0.113E-01
RMM:   6    -0.221020975466E+04   -0.12801E-03   -0.11477E-03  2318   0.189E-02    0.605E-02
RMM:   7    -0.221020980159E+04   -0.46926E-04   -0.36011E-04  2202   0.106E-02
  14 F= -.22102098E+04 E0= -.22102098E+04  d E =-.257287E-01  mag=     1.0144
 BRION: g(F)=  0.155E-01 g(S)=  0.000E+00 retain N=  5 mean eig= 3.57
 eig:   7.270  7.270  1.225  1.225  0.860
 bond charge predicted
       N       E                     dE             d eps       ncg     rms          rms(c)
DAV:   1    -0.221021076673E+04   -0.10121E-02   -0.66065E+00  3744   0.325E+00    0.194E+00
RMM:   2    -0.221022877193E+04   -0.18005E-01   -0.49615E-01  3697   0.593E-01    0.434E-01
RMM:   3    -0.221022942164E+04   -0.64972E-03   -0.22830E-01  3697   0.173E-01    0.267E-01
RMM:   4    -0.221022753772E+04    0.18839E-02   -0.39757E-03  3239   0.415E-02    0.191E-01
RMM:   5    -0.221022790285E+04   -0.36513E-03   -0.18678E-02  3085   0.385E-02    0.106E-01
RMM:   6    -0.221022781817E+04    0.84680E-04   -0.72312E-04  2264   0.167E-02
  15 F= -.22102278E+04 E0= -.22102278E+04  d E =-.180166E-01  mag=     1.0148
 BRION: g(F)=  0.992E-02 g(S)=  0.000E+00 retain N=  4 mean eig= 2.76
 eig:   4.680  4.680  0.843  0.843
 bond charge predicted
       N       E                     dE             d eps       ncg     rms          rms(c)
DAV:   1    -0.221022549834E+04    0.24045E-02   -0.62622E+00  3712   0.317E+00    0.188E+00
RMM:   2    -0.221024581215E+04   -0.20314E-01   -0.25960E-01  3697   0.550E-01    0.379E-01
RMM:   3    -0.221024182596E+04    0.39862E-02   -0.14840E-02  3697   0.125E-01    0.229E-01
RMM:   4    -0.221024212625E+04   -0.30029E-03   -0.74416E-03  3032   0.325E-02    0.153E-01
RMM:   5    -0.221024207128E+04    0.54967E-04   -0.16123E-03  2298   0.181E-02    0.837E-02
RMM:   6    -0.221024211148E+04   -0.40194E-04   -0.72308E-04  2215   0.131E-02
  16 F= -.22102421E+04 E0= -.22102421E+04  d E =-.142933E-01  mag=     1.0133
 BRION: g(F)=  0.651E-02 g(S)=  0.000E+00 retain N=  4 mean eig= 3.22
 eig:   5.443  5.443  0.994  0.994
 bond charge predicted
       N       E                     dE             d eps       ncg     rms          rms(c)
DAV:   1    -0.221024069678E+04    0.13745E-02   -0.43743E+00  3728   0.265E+00    0.158E+00
RMM:   2    -0.221025507922E+04   -0.14382E-01   -0.18792E-01  3697   0.460E-01    0.315E-01
RMM:   3    -0.221025229875E+04    0.27805E-02   -0.12091E-02  3697   0.103E-01    0.179E-01
RMM:   4    -0.221025225840E+04    0.40353E-04   -0.73963E-04  2610   0.231E-02
  17 F= -.22102523E+04 E0= -.22102523E+04  d E =-.101469E-01  mag=     1.0136
 BRION: g(F)=  0.466E-02 g(S)=  0.000E+00 retain N=  4 mean eig= 3.44
 eig:   5.752  5.752  1.127  1.127
 bond charge predicted
       N       E                     dE             d eps       ncg     rms          rms(c)
DAV:   1    -0.221024928039E+04    0.30184E-02   -0.41759E+00  3712   0.258E+00    0.154E+00
RMM:   2    -0.221026257167E+04   -0.13291E-01   -0.16023E-01  3698   0.443E-01    0.209E-01
RMM:   3    -0.221026015052E+04    0.24211E-02   -0.43163E-03  3698   0.953E-02    0.120E-01
RMM:   4    -0.221026015421E+04   -0.36923E-05   -0.60970E-04  2427   0.178E-02
  18 F= -.22102602E+04 E0= -.22102602E+04  d E =-.789582E-02  mag=     0.9991
 BRION: g(F)=  0.325E-02 g(S)=  0.000E+00 retain N=  4 mean eig= 4.00
 eig:   6.704  6.704  1.292  1.292
 bond charge predicted
       N       E                     dE             d eps       ncg     rms          rms(c)
DAV:   1    -0.221025907575E+04    0.10748E-02   -0.23422E+00  3792   0.193E+00    0.115E+00
RMM:   2    -0.221026648817E+04   -0.74124E-02   -0.98613E-02  3697   0.335E-01    0.188E-01
RMM:   3    -0.221026510590E+04    0.13823E-02   -0.41345E-03  3698   0.729E-02    0.108E-01
RMM:   4    -0.221026507689E+04    0.29007E-04   -0.46627E-04  2236   0.147E-02
  19 F= -.22102651E+04 E0= -.22102651E+04  d E =-.492267E-02  mag=     0.9936
 BRION: g(F)=  0.256E-02 g(S)=  0.000E+00 retain N=  4 mean eig= 4.28
 eig:   7.127  7.127  1.431  1.431
 bond charge predicted
       N       E                     dE             d eps       ncg     rms          rms(c)
DAV:   1    -0.221026490988E+04    0.19602E-03   -0.13077E+00  3760   0.145E+00    0.868E-01
RMM:   2    -0.221026905022E+04   -0.41403E-02   -0.51572E-02  3697   0.250E-01    0.144E-01
RMM:   3    -0.221026827595E+04    0.77427E-03   -0.21865E-03  3698   0.552E-02    0.848E-02
RMM:   4    -0.221026825910E+04    0.16852E-04   -0.14537E-04  2169   0.108E-02
  20 F= -.22102683E+04 E0= -.22102683E+04  d E =-.318221E-02  mag=     0.9914
 BRION: g(F)=  0.192E-02 g(S)=  0.000E+00 retain N=  4 mean eig= 4.22
 eig:   7.075  7.075  1.363  1.363
 bond charge predicted
       N       E                     dE             d eps       ncg     rms          rms(c)
DAV:   1    -0.221026809355E+04    0.18241E-03   -0.10134E+00  3744   0.127E+00    0.761E-01
RMM:   2    -0.221027129376E+04   -0.32002E-02   -0.43120E-02  3697   0.221E-01    0.123E-01
RMM:   3    -0.221027071839E+04    0.57537E-03   -0.16611E-03  3677   0.485E-02    0.713E-02
RMM:   4    -0.221027070233E+04    0.16057E-04   -0.70539E-05  2162   0.838E-03
  21 F= -.22102707E+04 E0= -.22102707E+04  d E =-.244323E-02  mag=     0.9873
 BRION: g(F)=  0.155E-02 g(S)=  0.000E+00 retain N=  4 mean eig= 3.95
 eig:   6.545  6.545  1.350  1.350
 bond charge predicted
       N       E                     dE             d eps       ncg     rms          rms(c)
DAV:   1    -0.221027030824E+04    0.41015E-03   -0.92354E-01  3744   0.121E+00    0.726E-01
RMM:   2    -0.221027320058E+04   -0.28923E-02   -0.35689E-02  3698   0.209E-01    0.962E-02
RMM:   3    -0.221027265334E+04    0.54724E-03   -0.81284E-04  3630   0.449E-02    0.522E-02
RMM:   4    -0.221027265407E+04   -0.73170E-06   -0.52364E-05  2161   0.744E-03
  22 F= -.22102727E+04 E0= -.22102727E+04  d E =-.195174E-02  mag=     0.9869
 BRION: g(F)=  0.125E-02 g(S)=  0.000E+00 retain N=  4 mean eig= 3.80
 eig:   6.441  6.441  1.167  1.167
 bond charge predicted
       N       E                     dE             d eps       ncg     rms          rms(c)
DAV:   1    -0.221027222587E+04    0.42747E-03   -0.73902E-01  3760   0.109E+00    0.652E-01
RMM:   2    -0.221027454524E+04   -0.23194E-02   -0.29004E-02  3697   0.187E-01    0.843E-02
RMM:   3    -0.221027411213E+04    0.43311E-03   -0.74423E-04  3428   0.404E-02    0.456E-02
RMM:   4    -0.221027411084E+04    0.12896E-05   -0.54934E-05  2162   0.732E-03
  23 F= -.22102741E+04 E0= -.22102741E+04  d E =-.145677E-02  mag=     0.9877
 BRION: g(F)=  0.937E-03 g(S)=  0.000E+00 retain N=  4 mean eig= 3.37
 eig:   5.624  5.624  1.121  1.121
 bond charge predicted
       N       E                     dE             d eps       ncg     rms          rms(c)
DAV:   1    -0.221027400714E+04    0.10499E-03   -0.45103E-01  3792   0.848E-01    0.507E-01
RMM:   2    -0.221027543220E+04   -0.14251E-02   -0.18368E-02  3697   0.146E-01    0.888E-02
RMM:   3    -0.221027518595E+04    0.24625E-03   -0.10923E-03  2569   0.328E-02    0.501E-02
RMM:   4    -0.221027518442E+04    0.15352E-05   -0.16117E-04  2172   0.933E-03
  24 F= -.22102752E+04 E0= -.22102752E+04  d E =-.107358E-02  mag=     0.9893
 BRION: g(F)=  0.677E-03 g(S)=  0.000E+00 retain N=  4 mean eig= 3.47
 eig:   5.788  5.788  1.146  1.146
 bond charge predicted
       N       E                     dE             d eps       ncg     rms          rms(c)
DAV:   1    -0.221027530537E+04   -0.11941E-03   -0.26944E-01  3760   0.656E-01    0.390E-01
RMM:   2    -0.221027619574E+04   -0.89038E-03   -0.10964E-02  3697   0.113E-01    0.714E-02
RMM:   3    -0.221027602654E+04    0.16921E-03   -0.48612E-04  2217   0.253E-02    0.479E-02
RMM:   4    -0.221027602662E+04   -0.81884E-07   -0.52062E-05  2150   0.760E-03
  25 F= -.22102760E+04 E0= -.22102760E+04  d E =-.842199E-03  mag=     0.9938
 BRION: g(F)=  0.570E-03 g(S)=  0.000E+00 retain N=  4 mean eig= 3.12
 eig:   5.220  5.220  1.022  1.022
 reached required accuracy - stopping structural energy minimisation
 writing wavefunctions
--------------------------------------------------------------------------------
Starting epilogue for job 175936, user michele (734), group users (100) at Tue Nov 19 12:44:15 2019
Jobname is 'tio2-loc' in queue 'fugu.q'
Resources used:
  key         value       info
  ----------------------------
  elapsed      0:00:40:05
  exit_status 0            (no failure)
  time_wall    0:00:40:05
epilogue finished for job 175936, status OK, spent 0.43 seconds
--------------------------------------------------------------------------------
