 288 288   1   0
  0.1035768E+02  0.1297303E-08  0.1297303E-08  0.1772442E-08  0.5000000E-15
  1.000000000000000E-004
  CAR 
 unknown system                          
      7.21134491    -16.89289418  301      4.75097219      1.00000000
    -16.893  0.0000E+00  0.0000E+00
    -16.813  0.0000E+00  0.0000E+00
    -16.732  0.0000E+00  0.0000E+00
    -16.652  0.0000E+00  0.0000E+00
    -16.572  0.0000E+00  0.0000E+00
    -16.491  0.0000E+00  0.0000E+00
    -16.411  0.0000E+00  0.0000E+00
    -16.330  0.0000E+00  0.0000E+00
    -16.250  0.0000E+00  0.0000E+00
    -16.170  0.0000E+00  0.0000E+00
    -16.089  0.6909E-17  0.5551E-18
    -16.009  0.1295E-09  0.1041E-10
    -15.929  0.1246E-04  0.1001E-05
    -15.848  0.9205E-02  0.7406E-03
    -15.768  0.8982E-01  0.7957E-02
    -15.688  0.2531E-01  0.9991E-02
    -15.607  0.1096E-01  0.1087E-01
    -15.527  0.1689E+00  0.2444E-01
    -15.447  0.2531E+00  0.4478E-01
    -15.366  0.3010E+00  0.6896E-01
    -15.286  0.5572E-01  0.7344E-01
    -15.206  0.6648E+00  0.1269E+00
    -15.125  0.3232E+00  0.1528E+00
    -15.045  0.5126E+00  0.1940E+00
    -14.965  0.3497E+00  0.2221E+00
    -14.884  0.9557E+00  0.2989E+00
    -14.804  0.9137E+00  0.3723E+00
    -14.724  0.7953E+00  0.4362E+00
    -14.643  0.1064E+01  0.5217E+00
    -14.563  0.1696E+01  0.6580E+00
    -14.482  0.1094E+01  0.7459E+00
    -14.402  0.1568E+01  0.8718E+00
    -14.322  0.2228E+01  0.1051E+01
    -14.241  0.2558E+01  0.1256E+01
    -14.161  0.4111E+01  0.1587E+01
    -14.081  0.2867E+01  0.1817E+01
    -14.000  0.1031E+01  0.1900E+01
    -13.920  0.2356E+00  0.1919E+01
    -13.840  0.1545E-01  0.1920E+01
    -13.759  0.1714E-04  0.1920E+01
    -13.679  0.1452E-09  0.1920E+01
    -13.599  0.0000E+00  0.1920E+01
    -13.518  0.0000E+00  0.1920E+01
    -13.438  0.0000E+00  0.1920E+01
    -13.358  0.0000E+00  0.1920E+01
    -13.277  0.0000E+00  0.1920E+01
    -13.197  0.0000E+00  0.1920E+01
    -13.117  0.0000E+00  0.1920E+01
    -13.036  0.0000E+00  0.1920E+01
    -12.956  0.0000E+00  0.1920E+01
    -12.876  0.0000E+00  0.1920E+01
    -12.795  0.0000E+00  0.1920E+01
    -12.715  0.0000E+00  0.1920E+01
    -12.634  0.0000E+00  0.1920E+01
    -12.554  0.0000E+00  0.1920E+01
    -12.474  0.0000E+00  0.1920E+01
    -12.393  0.0000E+00  0.1920E+01
    -12.313  0.0000E+00  0.1920E+01
    -12.233  0.0000E+00  0.1920E+01
    -12.152  0.0000E+00  0.1920E+01
    -12.072  0.0000E+00  0.1920E+01
    -11.992  0.0000E+00  0.1920E+01
    -11.911  0.0000E+00  0.1920E+01
    -11.831  0.0000E+00  0.1920E+01
    -11.751  0.0000E+00  0.1920E+01
    -11.670  0.0000E+00  0.1920E+01
    -11.590  0.0000E+00  0.1920E+01
    -11.510  0.0000E+00  0.1920E+01
    -11.429  0.0000E+00  0.1920E+01
    -11.349  0.0000E+00  0.1920E+01
    -11.269  0.0000E+00  0.1920E+01
    -11.188  0.0000E+00  0.1920E+01
    -11.108  0.0000E+00  0.1920E+01
    -11.028  0.0000E+00  0.1920E+01
    -10.947  0.0000E+00  0.1920E+01
    -10.867  0.0000E+00  0.1920E+01
    -10.786  0.0000E+00  0.1920E+01
    -10.706  0.0000E+00  0.1920E+01
    -10.626  0.0000E+00  0.1920E+01
    -10.545  0.0000E+00  0.1920E+01
    -10.465  0.0000E+00  0.1920E+01
    -10.385  0.0000E+00  0.1920E+01
    -10.304  0.0000E+00  0.1920E+01
    -10.224  0.0000E+00  0.1920E+01
    -10.144  0.0000E+00  0.1920E+01
    -10.063  0.0000E+00  0.1920E+01
     -9.983  0.0000E+00  0.1920E+01
     -9.903  0.0000E+00  0.1920E+01
     -9.822  0.0000E+00  0.1920E+01
     -9.742  0.0000E+00  0.1920E+01
     -9.662  0.0000E+00  0.1920E+01
     -9.581  0.0000E+00  0.1920E+01
     -9.501  0.0000E+00  0.1920E+01
     -9.421  0.0000E+00  0.1920E+01
     -9.340  0.0000E+00  0.1920E+01
     -9.260  0.0000E+00  0.1920E+01
     -9.180  0.0000E+00  0.1920E+01
     -9.099  0.0000E+00  0.1920E+01
     -9.019  0.0000E+00  0.1920E+01
     -8.938  0.0000E+00  0.1920E+01
     -8.858  0.0000E+00  0.1920E+01
     -8.778  0.0000E+00  0.1920E+01
     -8.697  0.0000E+00  0.1920E+01
     -8.617  0.0000E+00  0.1920E+01
     -8.537  0.0000E+00  0.1920E+01
     -8.456  0.0000E+00  0.1920E+01
     -8.376  0.0000E+00  0.1920E+01
     -8.296  0.0000E+00  0.1920E+01
     -8.215  0.0000E+00  0.1920E+01
     -8.135  0.0000E+00  0.1920E+01
     -8.055  0.0000E+00  0.1920E+01
     -7.974  0.0000E+00  0.1920E+01
     -7.894  0.0000E+00  0.1920E+01
     -7.814  0.0000E+00  0.1920E+01
     -7.733  0.0000E+00  0.1920E+01
     -7.653  0.0000E+00  0.1920E+01
     -7.573  0.0000E+00  0.1920E+01
     -7.492  0.0000E+00  0.1920E+01
     -7.412  0.0000E+00  0.1920E+01
     -7.332  0.0000E+00  0.1920E+01
     -7.251  0.0000E+00  0.1920E+01
     -7.171  0.0000E+00  0.1920E+01
     -7.091  0.0000E+00  0.1920E+01
     -7.010  0.0000E+00  0.1920E+01
     -6.930  0.0000E+00  0.1920E+01
     -6.849  0.0000E+00  0.1920E+01
     -6.769  0.0000E+00  0.1920E+01
     -6.689  0.0000E+00  0.1920E+01
     -6.608  0.0000E+00  0.1920E+01
     -6.528  0.0000E+00  0.1920E+01
     -6.448  0.0000E+00  0.1920E+01
     -6.367  0.0000E+00  0.1920E+01
     -6.287  0.0000E+00  0.1920E+01
     -6.207  0.0000E+00  0.1920E+01
     -6.126  0.0000E+00  0.1920E+01
     -6.046  0.0000E+00  0.1920E+01
     -5.966  0.0000E+00  0.1920E+01
     -5.885  0.0000E+00  0.1920E+01
     -5.805  0.0000E+00  0.1920E+01
     -5.725  0.0000E+00  0.1920E+01
     -5.644  0.0000E+00  0.1920E+01
     -5.564  0.0000E+00  0.1920E+01
     -5.484  0.0000E+00  0.1920E+01
     -5.403  0.0000E+00  0.1920E+01
     -5.323  0.0000E+00  0.1920E+01
     -5.243  0.0000E+00  0.1920E+01
     -5.162  0.0000E+00  0.1920E+01
     -5.082  0.0000E+00  0.1920E+01
     -5.001  0.0000E+00  0.1920E+01
     -4.921  0.0000E+00  0.1920E+01
     -4.841  0.0000E+00  0.1920E+01
     -4.760  0.0000E+00  0.1920E+01
     -4.680  0.0000E+00  0.1920E+01
     -4.600  0.0000E+00  0.1920E+01
     -4.519  0.0000E+00  0.1920E+01
     -4.439  0.0000E+00  0.1920E+01
     -4.359  0.0000E+00  0.1920E+01
     -4.278  0.0000E+00  0.1920E+01
     -4.198  0.0000E+00  0.1920E+01
     -4.118  0.0000E+00  0.1920E+01
     -4.037  0.0000E+00  0.1920E+01
     -3.957  0.0000E+00  0.1920E+01
     -3.877  0.0000E+00  0.1920E+01
     -3.796  0.0000E+00  0.1920E+01
     -3.716  0.0000E+00  0.1920E+01
     -3.636  0.0000E+00  0.1920E+01
     -3.555  0.0000E+00  0.1920E+01
     -3.475  0.1672E-14  0.1920E+01
     -3.395  0.5779E-08  0.1920E+01
     -3.314  0.1343E-03  0.1920E+01
     -3.234  0.2641E-01  0.1922E+01
     -3.153  0.8924E-01  0.1929E+01
     -3.073  0.3291E-01  0.1932E+01
     -2.993  0.4722E+00  0.1970E+01
     -2.912  0.2731E+00  0.1992E+01
     -2.832  0.2345E+00  0.2011E+01
     -2.752  0.8001E+00  0.2075E+01
     -2.671  0.7881E+00  0.2138E+01
     -2.591  0.9821E-01  0.2146E+01
     -2.511  0.2021E+00  0.2162E+01
     -2.430  0.6601E+00  0.2215E+01
     -2.350  0.3826E+00  0.2246E+01
     -2.270  0.9251E+00  0.2321E+01
     -2.189  0.2000E+01  0.2481E+01
     -2.109  0.1025E+01  0.2563E+01
     -2.029  0.1055E+01  0.2648E+01
     -1.948  0.3424E+01  0.2923E+01
     -1.868  0.3316E+01  0.3190E+01
     -1.788  0.1412E+01  0.3303E+01
     -1.707  0.1912E+01  0.3457E+01
     -1.627  0.2240E+01  0.3637E+01
     -1.547  0.8170E+00  0.3703E+01
     -1.466  0.8612E+00  0.3772E+01
     -1.386  0.1268E+01  0.3874E+01
     -1.305  0.1713E+01  0.4011E+01
     -1.225  0.3327E+00  0.4038E+01
     -1.145  0.1913E+00  0.4053E+01
     -1.064  0.9635E+00  0.4131E+01
     -0.984  0.7212E+00  0.4189E+01
     -0.904  0.5596E+00  0.4234E+01
     -0.823  0.1037E+01  0.4317E+01
     -0.743  0.9122E+00  0.4390E+01
     -0.663  0.1443E+01  0.4506E+01
     -0.582  0.9709E+00  0.4584E+01
     -0.502  0.1328E+01  0.4691E+01
     -0.422  0.8338E+00  0.4758E+01
     -0.341  0.8800E+00  0.4829E+01
     -0.261  0.1377E+01  0.4939E+01
     -0.181  0.2007E+01  0.5101E+01
     -0.100  0.1444E+01  0.5217E+01
     -0.020  0.1014E+01  0.5298E+01
      0.060  0.1074E+01  0.5384E+01
      0.141  0.8706E+00  0.5454E+01
      0.221  0.2976E+00  0.5478E+01
      0.301  0.9187E+00  0.5552E+01
      0.382  0.1434E+01  0.5667E+01
      0.462  0.2743E+01  0.5888E+01
      0.543  0.1295E+01  0.5992E+01
      0.623  0.5262E+00  0.6034E+01
      0.703  0.8687E+00  0.6104E+01
      0.784  0.1468E+01  0.6222E+01
      0.864  0.1098E+01  0.6310E+01
      0.944  0.6356E+00  0.6361E+01
      1.025  0.1275E+01  0.6463E+01
      1.105  0.1325E+01  0.6570E+01
      1.185  0.8735E+00  0.6640E+01
      1.266  0.6383E+00  0.6691E+01
      1.346  0.1946E+01  0.6848E+01
      1.426  0.2068E+01  0.7014E+01
      1.507  0.9271E+00  0.7088E+01
      1.587  0.1562E+01  0.7214E+01
      1.667  0.8038E+00  0.7279E+01
      1.748  0.6075E-01  0.7283E+01
      1.828  0.9664E+00  0.7361E+01
      1.908  0.2067E+01  0.7527E+01
      1.989  0.7662E+00  0.7589E+01
      2.069  0.1351E+00  0.7600E+01
      2.149  0.4327E+00  0.7634E+01
      2.230  0.1922E+00  0.7650E+01
      2.310  0.3960E-02  0.7650E+01
      2.390  0.9827E-01  0.7658E+01
      2.471  0.1438E+00  0.7670E+01
      2.551  0.1991E-01  0.7671E+01
      2.632  0.9253E-01  0.7679E+01
      2.712  0.1733E-01  0.7680E+01
      2.792  0.4946E-04  0.7680E+01
      2.873  0.1140E-08  0.7680E+01
      2.953  0.1658E-15  0.7680E+01
      3.033  0.0000E+00  0.7680E+01
      3.114  0.0000E+00  0.7680E+01
      3.194  0.0000E+00  0.7680E+01
      3.274  0.0000E+00  0.7680E+01
      3.355  0.0000E+00  0.7680E+01
      3.435  0.0000E+00  0.7680E+01
      3.515  0.0000E+00  0.7680E+01
      3.596  0.0000E+00  0.7680E+01
      3.676  0.0000E+00  0.7680E+01
      3.756  0.0000E+00  0.7680E+01
      3.837  0.0000E+00  0.7680E+01
      3.917  0.0000E+00  0.7680E+01
      3.997  0.0000E+00  0.7680E+01
      4.078  0.0000E+00  0.7680E+01
      4.158  0.0000E+00  0.7680E+01
      4.238  0.0000E+00  0.7680E+01
      4.319  0.0000E+00  0.7680E+01
      4.399  0.0000E+00  0.7680E+01
      4.480  0.0000E+00  0.7680E+01
      4.560  0.1003E-09  0.7680E+01
      4.640  0.1349E-04  0.7680E+01
      4.721  0.1401E-01  0.7681E+01
      4.801  0.2699E+00  0.7703E+01
      4.881  0.5336E+00  0.7746E+01
      4.962  0.4056E+00  0.7778E+01
      5.042  0.2679E+00  0.7800E+01
      5.122  0.5099E+00  0.7841E+01
      5.203  0.1553E+01  0.7966E+01
      5.283  0.1718E+01  0.8104E+01
      5.363  0.1051E+01  0.8188E+01
      5.444  0.1920E+01  0.8342E+01
      5.524  0.1386E+01  0.8454E+01
      5.604  0.6091E+00  0.8503E+01
      5.685  0.1312E+01  0.8608E+01
      5.765  0.1644E+01  0.8740E+01
      5.845  0.1323E+01  0.8846E+01
      5.926  0.7881E+00  0.8910E+01
      6.006  0.1327E+01  0.9016E+01
      6.086  0.1785E+01  0.9160E+01
      6.167  0.9614E+00  0.9237E+01
      6.247  0.3719E-01  0.9240E+01
      6.328  0.2835E-04  0.9240E+01
      6.408  0.2136E-09  0.9240E+01
      6.488  0.0000E+00  0.9240E+01
      6.569  0.0000E+00  0.9240E+01
      6.649  0.0000E+00  0.9240E+01
      6.729  0.0000E+00  0.9240E+01
      6.810  0.0000E+00  0.9240E+01
      6.890  0.0000E+00  0.9240E+01
      6.970  0.0000E+00  0.9240E+01
      7.051  0.0000E+00  0.9240E+01
      7.131  0.0000E+00  0.9240E+01
      7.211  0.0000E+00  0.9240E+01
      7.21134491    -16.89289418  301      4.75097219      1.00000000
    -16.893  0.0000E+00  0.0000E+00  0.0000E+00
    -16.813  0.0000E+00  0.0000E+00  0.0000E+00
    -16.732  0.0000E+00  0.0000E+00  0.0000E+00
    -16.652  0.0000E+00  0.0000E+00  0.0000E+00
    -16.572  0.0000E+00  0.0000E+00  0.0000E+00
    -16.491  0.0000E+00  0.0000E+00  0.0000E+00
    -16.411  0.0000E+00  0.0000E+00  0.0000E+00
    -16.330  0.0000E+00  0.0000E+00  0.0000E+00
    -16.250  0.0000E+00  0.0000E+00  0.0000E+00
    -16.170  0.0000E+00  0.0000E+00  0.0000E+00
    -16.089  0.3140E-17  0.3862E-25  0.5565E-19
    -16.009  0.5887E-10  0.7241E-18  0.1043E-11
    -15.929  0.5662E-05  0.6964E-13  0.1004E-06
    -15.848  0.4184E-02  0.5146E-10  0.7415E-04
    -15.768  0.4082E-01  0.5039E-09  0.7234E-03
    -15.688  0.1150E-01  0.3222E-06  0.2039E-03
    -15.607  0.4269E-02  0.4121E-03  0.5038E-04
    -15.527  0.6573E-01  0.6385E-02  0.8505E-03
    -15.447  0.9615E-01  0.7166E-02  0.7450E-02
    -15.366  0.1136E+00  0.7388E-02  0.1174E-01
    -15.286  0.1846E-01  0.2856E-02  0.2005E-02
    -15.206  0.2096E+00  0.3975E-01  0.2305E-01
    -15.125  0.1006E+00  0.1916E-01  0.1242E-01
    -15.045  0.1487E+00  0.2420E-01  0.4219E-01
    -14.965  0.9228E-01  0.2512E-01  0.2263E-01
    -14.884  0.2232E+00  0.8511E-01  0.5587E-01
    -14.804  0.1913E+00  0.7542E-01  0.8540E-01
    -14.724  0.1327E+00  0.7484E-01  0.9000E-01
    -14.643  0.1274E+00  0.5254E-01  0.2479E+00
    -14.563  0.1568E+00  0.8206E-01  0.4461E+00
    -14.482  0.1260E+00  0.1005E+00  0.1887E+00
    -14.402  0.6871E-01  0.1363E+00  0.3739E+00
    -14.322  0.4961E-01  0.2160E+00  0.5314E+00
    -14.241  0.2167E-01  0.3035E+00  0.5249E+00
    -14.161  0.2246E-01  0.5469E+00  0.7095E+00
    -14.081  0.2355E-02  0.4895E+00  0.2621E+00
    -14.000  0.3372E-04  0.1969E+00  0.4035E-01
    -13.920  0.3377E-07  0.4699E-01  0.1413E-02
    -13.840  0.2077E-10  0.3103E-02  0.8513E-06
    -13.759  0.2221E-13  0.3440E-05  0.5666E-11
    -13.679  0.1887E-18  0.2910E-10  0.1537E-16
    -13.599  0.0000E+00  0.0000E+00  0.0000E+00
    -13.518  0.0000E+00  0.0000E+00  0.0000E+00
    -13.438  0.0000E+00  0.0000E+00  0.0000E+00
    -13.358  0.0000E+00  0.0000E+00  0.0000E+00
    -13.277  0.0000E+00  0.0000E+00  0.0000E+00
    -13.197  0.0000E+00  0.0000E+00  0.0000E+00
    -13.117  0.0000E+00  0.0000E+00  0.0000E+00
    -13.036  0.0000E+00  0.0000E+00  0.0000E+00
    -12.956  0.0000E+00  0.0000E+00  0.0000E+00
    -12.876  0.0000E+00  0.0000E+00  0.0000E+00
    -12.795  0.0000E+00  0.0000E+00  0.0000E+00
    -12.715  0.0000E+00  0.0000E+00  0.0000E+00
    -12.634  0.0000E+00  0.0000E+00  0.0000E+00
    -12.554  0.0000E+00  0.0000E+00  0.0000E+00
    -12.474  0.0000E+00  0.0000E+00  0.0000E+00
    -12.393  0.0000E+00  0.0000E+00  0.0000E+00
    -12.313  0.0000E+00  0.0000E+00  0.0000E+00
    -12.233  0.0000E+00  0.0000E+00  0.0000E+00
    -12.152  0.0000E+00  0.0000E+00  0.0000E+00
    -12.072  0.0000E+00  0.0000E+00  0.0000E+00
    -11.992  0.0000E+00  0.0000E+00  0.0000E+00
    -11.911  0.0000E+00  0.0000E+00  0.0000E+00
    -11.831  0.0000E+00  0.0000E+00  0.0000E+00
    -11.751  0.0000E+00  0.0000E+00  0.0000E+00
    -11.670  0.0000E+00  0.0000E+00  0.0000E+00
    -11.590  0.0000E+00  0.0000E+00  0.0000E+00
    -11.510  0.0000E+00  0.0000E+00  0.0000E+00
    -11.429  0.0000E+00  0.0000E+00  0.0000E+00
    -11.349  0.0000E+00  0.0000E+00  0.0000E+00
    -11.269  0.0000E+00  0.0000E+00  0.0000E+00
    -11.188  0.0000E+00  0.0000E+00  0.0000E+00
    -11.108  0.0000E+00  0.0000E+00  0.0000E+00
    -11.028  0.0000E+00  0.0000E+00  0.0000E+00
    -10.947  0.0000E+00  0.0000E+00  0.0000E+00
    -10.867  0.0000E+00  0.0000E+00  0.0000E+00
    -10.786  0.0000E+00  0.0000E+00  0.0000E+00
    -10.706  0.0000E+00  0.0000E+00  0.0000E+00
    -10.626  0.0000E+00  0.0000E+00  0.0000E+00
    -10.545  0.0000E+00  0.0000E+00  0.0000E+00
    -10.465  0.0000E+00  0.0000E+00  0.0000E+00
    -10.385  0.0000E+00  0.0000E+00  0.0000E+00
    -10.304  0.0000E+00  0.0000E+00  0.0000E+00
    -10.224  0.0000E+00  0.0000E+00  0.0000E+00
    -10.144  0.0000E+00  0.0000E+00  0.0000E+00
    -10.063  0.0000E+00  0.0000E+00  0.0000E+00
     -9.983  0.0000E+00  0.0000E+00  0.0000E+00
     -9.903  0.0000E+00  0.0000E+00  0.0000E+00
     -9.822  0.0000E+00  0.0000E+00  0.0000E+00
     -9.742  0.0000E+00  0.0000E+00  0.0000E+00
     -9.662  0.0000E+00  0.0000E+00  0.0000E+00
     -9.581  0.0000E+00  0.0000E+00  0.0000E+00
     -9.501  0.0000E+00  0.0000E+00  0.0000E+00
     -9.421  0.0000E+00  0.0000E+00  0.0000E+00
     -9.340  0.0000E+00  0.0000E+00  0.0000E+00
     -9.260  0.0000E+00  0.0000E+00  0.0000E+00
     -9.180  0.0000E+00  0.0000E+00  0.0000E+00
     -9.099  0.0000E+00  0.0000E+00  0.0000E+00
     -9.019  0.0000E+00  0.0000E+00  0.0000E+00
     -8.938  0.0000E+00  0.0000E+00  0.0000E+00
     -8.858  0.0000E+00  0.0000E+00  0.0000E+00
     -8.778  0.0000E+00  0.0000E+00  0.0000E+00
     -8.697  0.0000E+00  0.0000E+00  0.0000E+00
     -8.617  0.0000E+00  0.0000E+00  0.0000E+00
     -8.537  0.0000E+00  0.0000E+00  0.0000E+00
     -8.456  0.0000E+00  0.0000E+00  0.0000E+00
     -8.376  0.0000E+00  0.0000E+00  0.0000E+00
     -8.296  0.0000E+00  0.0000E+00  0.0000E+00
     -8.215  0.0000E+00  0.0000E+00  0.0000E+00
     -8.135  0.0000E+00  0.0000E+00  0.0000E+00
     -8.055  0.0000E+00  0.0000E+00  0.0000E+00
     -7.974  0.0000E+00  0.0000E+00  0.0000E+00
     -7.894  0.0000E+00  0.0000E+00  0.0000E+00
     -7.814  0.0000E+00  0.0000E+00  0.0000E+00
     -7.733  0.0000E+00  0.0000E+00  0.0000E+00
     -7.653  0.0000E+00  0.0000E+00  0.0000E+00
     -7.573  0.0000E+00  0.0000E+00  0.0000E+00
     -7.492  0.0000E+00  0.0000E+00  0.0000E+00
     -7.412  0.0000E+00  0.0000E+00  0.0000E+00
     -7.332  0.0000E+00  0.0000E+00  0.0000E+00
     -7.251  0.0000E+00  0.0000E+00  0.0000E+00
     -7.171  0.0000E+00  0.0000E+00  0.0000E+00
     -7.091  0.0000E+00  0.0000E+00  0.0000E+00
     -7.010  0.0000E+00  0.0000E+00  0.0000E+00
     -6.930  0.0000E+00  0.0000E+00  0.0000E+00
     -6.849  0.0000E+00  0.0000E+00  0.0000E+00
     -6.769  0.0000E+00  0.0000E+00  0.0000E+00
     -6.689  0.0000E+00  0.0000E+00  0.0000E+00
     -6.608  0.0000E+00  0.0000E+00  0.0000E+00
     -6.528  0.0000E+00  0.0000E+00  0.0000E+00
     -6.448  0.0000E+00  0.0000E+00  0.0000E+00
     -6.367  0.0000E+00  0.0000E+00  0.0000E+00
     -6.287  0.0000E+00  0.0000E+00  0.0000E+00
     -6.207  0.0000E+00  0.0000E+00  0.0000E+00
     -6.126  0.0000E+00  0.0000E+00  0.0000E+00
     -6.046  0.0000E+00  0.0000E+00  0.0000E+00
     -5.966  0.0000E+00  0.0000E+00  0.0000E+00
     -5.885  0.0000E+00  0.0000E+00  0.0000E+00
     -5.805  0.0000E+00  0.0000E+00  0.0000E+00
     -5.725  0.0000E+00  0.0000E+00  0.0000E+00
     -5.644  0.0000E+00  0.0000E+00  0.0000E+00
     -5.564  0.0000E+00  0.0000E+00  0.0000E+00
     -5.484  0.0000E+00  0.0000E+00  0.0000E+00
     -5.403  0.0000E+00  0.0000E+00  0.0000E+00
     -5.323  0.0000E+00  0.0000E+00  0.0000E+00
     -5.243  0.0000E+00  0.0000E+00  0.0000E+00
     -5.162  0.0000E+00  0.0000E+00  0.0000E+00
     -5.082  0.0000E+00  0.0000E+00  0.0000E+00
     -5.001  0.0000E+00  0.0000E+00  0.0000E+00
     -4.921  0.0000E+00  0.0000E+00  0.0000E+00
     -4.841  0.0000E+00  0.0000E+00  0.0000E+00
     -4.760  0.0000E+00  0.0000E+00  0.0000E+00
     -4.680  0.0000E+00  0.0000E+00  0.0000E+00
     -4.600  0.0000E+00  0.0000E+00  0.0000E+00
     -4.519  0.0000E+00  0.0000E+00  0.0000E+00
     -4.439  0.0000E+00  0.0000E+00  0.0000E+00
     -4.359  0.0000E+00  0.0000E+00  0.0000E+00
     -4.278  0.0000E+00  0.0000E+00  0.0000E+00
     -4.198  0.0000E+00  0.0000E+00  0.0000E+00
     -4.118  0.0000E+00  0.0000E+00  0.0000E+00
     -4.037  0.0000E+00  0.0000E+00  0.0000E+00
     -3.957  0.0000E+00  0.0000E+00  0.0000E+00
     -3.877  0.0000E+00  0.0000E+00  0.0000E+00
     -3.796  0.0000E+00  0.0000E+00  0.0000E+00
     -3.716  0.0000E+00  0.0000E+00  0.0000E+00
     -3.636  0.0000E+00  0.0000E+00  0.0000E+00
     -3.555  0.0000E+00  0.0000E+00  0.0000E+00
     -3.475  0.1020E-14  0.1044E-22  0.6175E-15
     -3.395  0.3524E-08  0.3610E-16  0.2134E-08
     -3.314  0.8189E-04  0.8388E-12  0.4959E-04
     -3.234  0.1611E-01  0.1651E-09  0.9755E-02
     -3.153  0.5442E-01  0.2152E-07  0.3297E-01
     -3.073  0.1294E-01  0.3385E-04  0.2122E-01
     -2.993  0.1501E+00  0.6362E-03  0.3564E+00
     -2.912  0.9276E-01  0.2559E-02  0.1981E+00
     -2.832  0.1049E+00  0.1741E-01  0.1133E+00
     -2.752  0.2280E+00  0.5416E-01  0.5647E+00
     -2.671  0.2370E+00  0.5956E-01  0.5275E+00
     -2.591  0.6983E-02  0.6009E-02  0.9852E-01
     -2.511  0.1188E-01  0.9395E-02  0.1964E+00
     -2.430  0.1833E+00  0.4944E-02  0.2965E+00
     -2.350  0.1002E+00  0.2388E-01  0.1694E+00
     -2.270  0.2164E+00  0.2410E+00  0.3821E+00
     -2.189  0.4179E+00  0.4824E+00  0.8402E+00
     -2.109  0.1128E+00  0.2523E+00  0.5107E+00
     -2.029  0.8397E-01  0.2771E+00  0.5302E+00
     -1.948  0.2410E+00  0.6716E+00  0.1752E+01
     -1.868  0.3294E+00  0.5048E+00  0.1778E+01
     -1.788  0.2251E+00  0.2741E+00  0.6997E+00
     -1.707  0.7088E-01  0.1432E+00  0.1573E+01
     -1.627  0.9514E-01  0.8396E-01  0.2122E+01
     -1.547  0.1094E-01  0.7229E-01  0.6550E+00
     -1.466  0.2744E-02  0.1011E+00  0.4786E+00
     -1.386  0.1344E+00  0.1395E+00  0.8300E+00
     -1.305  0.2080E+00  0.1501E+00  0.1148E+01
     -1.225  0.6252E-01  0.2413E-01  0.1963E+00
     -1.145  0.7097E-01  0.3775E-01  0.3364E-01
     -1.064  0.4440E-01  0.3118E+00  0.4350E+00
     -0.984  0.2370E-01  0.1916E+00  0.2927E+00
     -0.904  0.4185E-03  0.1999E+00  0.1476E+00
     -0.823  0.1598E-01  0.1495E+00  0.4766E+00
     -0.743  0.8034E-01  0.7770E-01  0.4828E+00
     -0.663  0.1337E+00  0.1194E+00  0.7010E+00
     -0.582  0.1526E+00  0.2128E+00  0.2900E+00
     -0.502  0.1945E+00  0.1519E+00  0.3756E+00
     -0.422  0.7016E-01  0.1554E+00  0.3314E+00
     -0.341  0.1834E-01  0.2495E+00  0.3680E+00
     -0.261  0.1947E+00  0.3751E+00  0.2417E+00
     -0.181  0.1401E+00  0.6632E+00  0.3543E+00
     -0.100  0.4892E-01  0.3190E+00  0.4746E+00
     -0.020  0.7086E-01  0.2846E+00  0.2970E+00
      0.060  0.3100E-01  0.4580E+00  0.1368E+00
      0.141  0.1449E-02  0.2942E+00  0.2089E+00
      0.221  0.3209E-02  0.6652E-01  0.9005E-01
      0.301  0.5470E-01  0.1678E+00  0.1771E+00
      0.382  0.4891E-01  0.3606E+00  0.3246E+00
      0.462  0.5655E-02  0.6845E+00  0.7546E+00
      0.543  0.1887E-02  0.2930E+00  0.3200E+00
      0.623  0.3623E-01  0.3665E-01  0.1885E+00
      0.703  0.1928E-01  0.1416E+00  0.2438E+00
      0.784  0.4838E-02  0.1491E+00  0.4419E+00
      0.864  0.2303E-01  0.1231E+00  0.1908E+00
      0.944  0.7026E-02  0.1384E+00  0.1154E+00
      1.025  0.4260E-02  0.2697E+00  0.2485E+00
      1.105  0.3888E-01  0.1944E+00  0.2829E+00
      1.185  0.1061E-01  0.1510E+00  0.1515E+00
      1.266  0.1736E-01  0.8918E-01  0.1264E+00
      1.346  0.3080E-01  0.2445E+00  0.3389E+00
      1.426  0.7564E-02  0.2854E+00  0.2843E+00
      1.507  0.1255E-02  0.1018E+00  0.1058E+00
      1.587  0.1850E-01  0.1210E+00  0.1616E+00
      1.667  0.1343E-01  0.3668E-01  0.1128E+00
      1.748  0.2583E-03  0.6287E-02  0.3690E-02
      1.828  0.1895E-02  0.5874E-01  0.2812E-01
      1.908  0.5079E-02  0.1205E+00  0.1272E+00
      1.989  0.9695E-03  0.2489E-01  0.8021E-01
      2.069  0.3693E-05  0.7045E-02  0.2418E-02
      2.149  0.2452E-09  0.2352E-01  0.7797E-02
      2.230  0.2758E-10  0.1007E-01  0.4976E-02
      2.310  0.4073E-12  0.1309E-03  0.6911E-04
      2.390  0.5367E-11  0.1637E-07  0.1365E-03
      2.471  0.7984E-11  0.7723E-10  0.1956E-03
      2.551  0.3845E-12  0.1024E-10  0.6289E-03
      2.632  0.5053E-12  0.4726E-10  0.3964E-02
      2.712  0.9460E-13  0.8851E-11  0.7423E-03
      2.792  0.2700E-15  0.2527E-13  0.2119E-05
      2.873  0.6224E-20  0.5824E-18  0.4884E-10
      2.953  0.9052E-27  0.8469E-25  0.7103E-17
      3.033  0.0000E+00  0.0000E+00  0.0000E+00
      3.114  0.0000E+00  0.0000E+00  0.0000E+00
      3.194  0.0000E+00  0.0000E+00  0.0000E+00
      3.274  0.0000E+00  0.0000E+00  0.0000E+00
      3.355  0.0000E+00  0.0000E+00  0.0000E+00
      3.435  0.0000E+00  0.0000E+00  0.0000E+00
      3.515  0.0000E+00  0.0000E+00  0.0000E+00
      3.596  0.0000E+00  0.0000E+00  0.0000E+00
      3.676  0.0000E+00  0.0000E+00  0.0000E+00
      3.756  0.0000E+00  0.0000E+00  0.0000E+00
      3.837  0.0000E+00  0.0000E+00  0.0000E+00
      3.917  0.0000E+00  0.0000E+00  0.0000E+00
      3.997  0.0000E+00  0.0000E+00  0.0000E+00
      4.078  0.0000E+00  0.0000E+00  0.0000E+00
      4.158  0.0000E+00  0.0000E+00  0.0000E+00
      4.238  0.0000E+00  0.0000E+00  0.0000E+00
      4.319  0.0000E+00  0.0000E+00  0.0000E+00
      4.399  0.0000E+00  0.0000E+00  0.0000E+00
      4.480  0.0000E+00  0.0000E+00  0.0000E+00
      4.560  0.1542E-11  0.1437E-17  0.1929E-09
      4.640  0.2082E-06  0.8154E-11  0.2567E-04
      4.721  0.2160E-03  0.3403E-06  0.2641E-01
      4.801  0.4220E-02  0.1153E-03  0.5079E+00
      4.881  0.9707E-02  0.5992E-03  0.1030E+01
      4.962  0.1067E-01  0.9153E-04  0.7674E+00
      5.042  0.1260E-01  0.1053E-03  0.5000E+00
      5.122  0.3590E-02  0.1212E-01  0.9632E+00
      5.203  0.1589E-01  0.3081E-01  0.2894E+01
      5.283  0.2243E-01  0.1556E-01  0.3181E+01
      5.363  0.5903E-02  0.6763E-02  0.1952E+01
      5.444  0.1850E-01  0.2168E-01  0.3572E+01
      5.524  0.5314E-01  0.4247E-01  0.2527E+01
      5.604  0.1123E-01  0.1305E-01  0.1127E+01
      5.685  0.1680E-01  0.2292E-01  0.2370E+01
      5.765  0.2995E-01  0.3608E-01  0.2952E+01
      5.845  0.2747E-01  0.3116E-01  0.2324E+01
      5.926  0.7448E-02  0.1688E-01  0.1386E+01
      6.006  0.6401E-02  0.4844E-01  0.2221E+01
      6.086  0.1096E-01  0.8202E-01  0.2950E+01
      6.167  0.6427E-02  0.2637E-01  0.1608E+01
      6.247  0.1859E-03  0.9471E-03  0.6015E-01
      6.328  0.8453E-07  0.6963E-06  0.4384E-04
      6.408  0.3775E-12  0.5263E-11  0.3110E-09
      6.488  0.0000E+00  0.0000E+00  0.0000E+00
      6.569  0.0000E+00  0.0000E+00  0.0000E+00
      6.649  0.0000E+00  0.0000E+00  0.0000E+00
      6.729  0.0000E+00  0.0000E+00  0.0000E+00
      6.810  0.0000E+00  0.0000E+00  0.0000E+00
      6.890  0.0000E+00  0.0000E+00  0.0000E+00
      6.970  0.0000E+00  0.0000E+00  0.0000E+00
      7.051  0.0000E+00  0.0000E+00  0.0000E+00
      7.131  0.0000E+00  0.0000E+00  0.0000E+00
      7.211  0.0000E+00  0.0000E+00  0.0000E+00
      7.21134491    -16.89289418  301      4.75097219      1.00000000
    -16.893  0.0000E+00  0.0000E+00  0.0000E+00
    -16.813  0.0000E+00  0.0000E+00  0.0000E+00
    -16.732  0.0000E+00  0.0000E+00  0.0000E+00
    -16.652  0.0000E+00  0.0000E+00  0.0000E+00
    -16.572  0.0000E+00  0.0000E+00  0.0000E+00
    -16.491  0.0000E+00  0.0000E+00  0.0000E+00
    -16.411  0.0000E+00  0.0000E+00  0.0000E+00
    -16.330  0.0000E+00  0.0000E+00  0.0000E+00
    -16.250  0.0000E+00  0.0000E+00  0.0000E+00
    -16.170  0.0000E+00  0.0000E+00  0.0000E+00
    -16.089  0.3138E-17  0.2249E-24  0.5564E-19
    -16.009  0.5883E-10  0.4217E-17  0.1043E-11
    -15.929  0.5659E-05  0.4056E-12  0.1003E-06
    -15.848  0.4181E-02  0.2997E-09  0.7413E-04
    -15.768  0.4079E-01  0.2926E-08  0.7233E-03
    -15.688  0.1150E-01  0.3213E-06  0.2038E-03
    -15.607  0.4269E-02  0.4109E-03  0.5007E-04
    -15.527  0.6562E-01  0.6379E-02  0.8443E-03
    -15.447  0.9595E-01  0.7159E-02  0.7439E-02
    -15.366  0.1134E+00  0.7374E-02  0.1173E-01
    -15.286  0.1814E-01  0.2878E-02  0.1967E-02
    -15.206  0.2085E+00  0.3972E-01  0.2291E-01
    -15.125  0.1014E+00  0.1900E-01  0.1252E-01
    -15.045  0.1477E+00  0.2411E-01  0.4197E-01
    -14.965  0.9150E-01  0.2524E-01  0.2250E-01
    -14.884  0.2215E+00  0.8473E-01  0.5533E-01
    -14.804  0.1928E+00  0.7469E-01  0.8489E-01
    -14.724  0.1328E+00  0.7425E-01  0.8990E-01
    -14.643  0.1287E+00  0.5228E-01  0.2455E+00
    -14.563  0.1590E+00  0.8066E-01  0.4439E+00
    -14.482  0.1279E+00  0.9988E-01  0.1872E+00
    -14.402  0.6930E-01  0.1357E+00  0.3730E+00
    -14.322  0.4981E-01  0.2126E+00  0.5287E+00
    -14.241  0.2166E-01  0.3001E+00  0.5264E+00
    -14.161  0.2211E-01  0.5491E+00  0.7167E+00
    -14.081  0.2240E-02  0.4971E+00  0.2703E+00
    -14.000  0.3139E-04  0.2014E+00  0.4046E-01
    -13.920  0.3048E-07  0.4768E-01  0.1387E-02
    -13.840  0.2123E-10  0.3141E-02  0.8670E-06
    -13.759  0.2278E-13  0.3481E-05  0.5771E-10
    -13.679  0.1926E-18  0.2946E-10  0.4565E-15
    -13.599  0.0000E+00  0.0000E+00  0.0000E+00
    -13.518  0.0000E+00  0.0000E+00  0.0000E+00
    -13.438  0.0000E+00  0.0000E+00  0.0000E+00
    -13.358  0.0000E+00  0.0000E+00  0.0000E+00
    -13.277  0.0000E+00  0.0000E+00  0.0000E+00
    -13.197  0.0000E+00  0.0000E+00  0.0000E+00
    -13.117  0.0000E+00  0.0000E+00  0.0000E+00
    -13.036  0.0000E+00  0.0000E+00  0.0000E+00
    -12.956  0.0000E+00  0.0000E+00  0.0000E+00
    -12.876  0.0000E+00  0.0000E+00  0.0000E+00
    -12.795  0.0000E+00  0.0000E+00  0.0000E+00
    -12.715  0.0000E+00  0.0000E+00  0.0000E+00
    -12.634  0.0000E+00  0.0000E+00  0.0000E+00
    -12.554  0.0000E+00  0.0000E+00  0.0000E+00
    -12.474  0.0000E+00  0.0000E+00  0.0000E+00
    -12.393  0.0000E+00  0.0000E+00  0.0000E+00
    -12.313  0.0000E+00  0.0000E+00  0.0000E+00
    -12.233  0.0000E+00  0.0000E+00  0.0000E+00
    -12.152  0.0000E+00  0.0000E+00  0.0000E+00
    -12.072  0.0000E+00  0.0000E+00  0.0000E+00
    -11.992  0.0000E+00  0.0000E+00  0.0000E+00
    -11.911  0.0000E+00  0.0000E+00  0.0000E+00
    -11.831  0.0000E+00  0.0000E+00  0.0000E+00
    -11.751  0.0000E+00  0.0000E+00  0.0000E+00
    -11.670  0.0000E+00  0.0000E+00  0.0000E+00
    -11.590  0.0000E+00  0.0000E+00  0.0000E+00
    -11.510  0.0000E+00  0.0000E+00  0.0000E+00
    -11.429  0.0000E+00  0.0000E+00  0.0000E+00
    -11.349  0.0000E+00  0.0000E+00  0.0000E+00
    -11.269  0.0000E+00  0.0000E+00  0.0000E+00
    -11.188  0.0000E+00  0.0000E+00  0.0000E+00
    -11.108  0.0000E+00  0.0000E+00  0.0000E+00
    -11.028  0.0000E+00  0.0000E+00  0.0000E+00
    -10.947  0.0000E+00  0.0000E+00  0.0000E+00
    -10.867  0.0000E+00  0.0000E+00  0.0000E+00
    -10.786  0.0000E+00  0.0000E+00  0.0000E+00
    -10.706  0.0000E+00  0.0000E+00  0.0000E+00
    -10.626  0.0000E+00  0.0000E+00  0.0000E+00
    -10.545  0.0000E+00  0.0000E+00  0.0000E+00
    -10.465  0.0000E+00  0.0000E+00  0.0000E+00
    -10.385  0.0000E+00  0.0000E+00  0.0000E+00
    -10.304  0.0000E+00  0.0000E+00  0.0000E+00
    -10.224  0.0000E+00  0.0000E+00  0.0000E+00
    -10.144  0.0000E+00  0.0000E+00  0.0000E+00
    -10.063  0.0000E+00  0.0000E+00  0.0000E+00
     -9.983  0.0000E+00  0.0000E+00  0.0000E+00
     -9.903  0.0000E+00  0.0000E+00  0.0000E+00
     -9.822  0.0000E+00  0.0000E+00  0.0000E+00
     -9.742  0.0000E+00  0.0000E+00  0.0000E+00