 vasp.5.4.3 09Sep16 (build Mar 08 2017 15:13:11) gamma-only                     
  
 executed on             LinuxIFC date 2019.11.19  12:07:05
 running on   16 total cores
 distrk:  each k-point on   16 cores,    1 groups
 distr:  one band on NCORES_PER_BAND=   4 cores,    4 groups


--------------------------------------------------------------------------------------------------------


 INCAR:
 POTCAR:    PAW_PBE Ti 08Apr2002                  
 POTCAR:    PAW_PBE O_s 07Sep2000                 
 POTCAR:    PAW_PBE Ti 08Apr2002                  
   VRHFIN =Ti: d3 s1                                                            
   LEXCH  = PE                                                                  
   EATOM  =    94.7928 eV,    6.9671 Ry                                         
                                                                                
   TITEL  = PAW_PBE Ti 08Apr2002                                                
   LULTRA =        F    use ultrasoft PP ?                                      
   IUNSCR =        1    unscreen: 0-lin 1-nonlin 2-no                           
   RPACOR =    2.200    partial core radius                                     
   POMASS =   47.880; ZVAL   =    4.000    mass and valenz                      
   RCORE  =    2.800    outmost cutoff radius                                   
   RWIGS  =    2.500; RWIGS  =    1.323    wigner-seitz radius (au A)           
   ENMAX  =  178.330; ENMIN  =  133.747 eV                                      
   RCLOC  =    2.215    cutoff for local pot                                    
   LCOR   =        T    correct aug charges                                     
   LPAW   =        T    paw PP                                                  
   EAUG   =  328.883                                                            
   DEXC   =    0.000                                                            
   RMAX   =    2.868    core radius for proj-oper                               
   RAUG   =    1.300    factor for augmentation sphere                          
   RDEP   =    2.885    radius for radial grids                                 
   RDEPT  =    2.320    core radius for aug-charge                              
                                                                                
   Atomic configuration                                                         
    9 entries                                                                   
     n  l   j            E        occ.                                          
     1  0  0.50     -4865.3608   2.0000                                         
     2  0  0.50      -533.1367   2.0000                                         
     2  1  1.50      -440.5031   6.0000                                         
     3  0  0.50       -59.3186   2.0000                                         
     3  1  1.50       -35.7012   6.0000                                         
     3  2  2.50        -1.9157   3.0000                                         
     4  0  0.50        -3.7291   1.0000                                         
     4  1  1.50        -4.0817   0.0000                                         
     4  3  2.50        -1.3606   0.0000                                         
   Description                                                                  
     l       E           TYP  RCUT    TYP  RCUT                                 
     2     -1.9156924     23  2.800                                             
     2     -0.4062961     23  2.800                                             
     0     -3.7290832     23  2.800                                             
     0     20.4087390     23  2.800                                             
     1     -5.4423304     23  2.800                                             
  local pseudopotential read in
  partial core-charges read in
  partial kinetic energy density read in
  atomic valenz-charges read in
  non local Contribution for L=           2  read in
    real space projection operators read in
  non local Contribution for L=           2  read in
    real space projection operators read in
  non local Contribution for L=           0  read in
    real space projection operators read in
  non local Contribution for L=           0  read in
    real space projection operators read in
  non local Contribution for L=           1  read in
    real space projection operators read in
    PAW grid and wavefunctions read in
 
   number of l-projection  operators is LMAX  =           5
   number of lm-projection operators is LMMAX =          15
 
 POTCAR:    PAW_PBE O_s 07Sep2000                 
   VRHFIN =O: s2p4                                                              
   LEXCH  = PE                                                                  
   EATOM  =   432.3788 eV,   31.7789 Ry                                         
                                                                                
   TITEL  = PAW_PBE O_s 07Sep2000                                               
   LULTRA =        F    use ultrasoft PP ?                                      
   IUNSCR =        0    unscreen: 0-lin 1-nonlin 2-no                           
   RPACOR =    0.000    partial core radius                                     
   POMASS =   16.000; ZVAL   =    6.000    mass and valenz                      
   RCORE  =    1.850    outmost cutoff radius                                   
   RWIGS  =    1.700; RWIGS  =    0.900    wigner-seitz radius (au A)           
   ENMAX  =  282.853; ENMIN  =  212.140 eV                                      
   RCLOC  =    0.804    cutoff for local pot                                    
   LCOR   =        T    correct aug charges                                     
   LPAW   =        T    paw PP                                                  
   EAUG   =  412.352                                                            
   RMAX   =    1.897    core radius for proj-oper                               
   RAUG   =    1.300    factor for augmentation sphere                          
   RDEP   =    1.878    radius for radial grids                                 
   RDEPT  =    1.572    core radius for aug-charge                              
                                                                                
   Atomic configuration                                                         
    4 entries                                                                   
     n  l   j            E        occ.                                          
     1  0  0.50      -514.6923   2.0000                                         
     2  0  0.50       -23.9615   2.0000                                         
     2  1  0.50        -9.0305   4.0000                                         
     3  2  1.50        -1.3606   0.0000                                         
   Description                                                                  
     l       E           TYP  RCUT    TYP  RCUT                                 
     0    -23.9615315     23  1.500                                             
     0    -25.3221141     23  1.500                                             
     1     -9.0304908     23  1.850                                             
     1     -7.3935399     23  1.850                                             
  local pseudopotential read in
  atomic valenz-charges read in
  non local Contribution for L=           0  read in
    real space projection operators read in
  non local Contribution for L=           0  read in
    real space projection operators read in
  non local Contribution for L=           1  read in
    real space projection operators read in
  non local Contribution for L=           1  read in
    real space projection operators read in
    PAW grid and wavefunctions read in
 
   number of l-projection  operators is LMAX  =           4
   number of lm-projection operators is LMMAX =           8
 
 Optimization of the real space projectors (new method)

 maximal supplied QI-value         = 13.42
 optimisation between [QCUT,QGAM] = [  8.05, 16.10] = [ 18.15, 72.59] Ry 
 Optimized for a Real-space Cutoff    1.75 Angstroem

   l    n(q)    QCUT    max X(q) W(low)/X(q) W(high)/X(q)  e(spline) 
   2      7     8.050    49.363    0.46E-03    0.48E-03    0.20E-06
   2      7     8.050    47.669    0.45E-03    0.46E-03    0.20E-06
   0      8     8.050    26.374    0.11E-03    0.27E-03    0.77E-07
   0      8     8.050    11.549    0.89E-04    0.21E-03    0.61E-07
   1      8     8.050     9.492    0.13E-03    0.67E-04    0.21E-07
 Optimization of the real space projectors (new method)

 maximal supplied QI-value         = 20.41
 optimisation between [QCUT,QGAM] = [  7.96, 16.12] = [ 17.74, 72.80] Ry 
 Optimized for a Real-space Cutoff    1.42 Angstroem

   l    n(q)    QCUT    max X(q) W(low)/X(q) W(high)/X(q)  e(spline) 
   0      7     7.960   131.351    0.48E-03    0.11E-02    0.64E-07
   0      7     7.960   135.858    0.47E-03    0.10E-02    0.63E-07
   1      6     7.960    81.045    0.45E-03    0.55E-03    0.21E-06
   1      6     7.960    75.856    0.46E-03    0.54E-03    0.20E-06
  PAW_PBE Ti 08Apr2002                  :
 energy of atom  1       EATOM=  -94.7928
 kinetic energy error for atom=    0.0045 (will be added to EATOM!!)
  PAW_PBE O_s 07Sep2000                 :
 energy of atom  2       EATOM= -432.3788
 kinetic energy error for atom=    0.2512 (will be added to EATOM!!)
 
 
 POSCAR: TiO2_rutile_15K (JACS 109 3639-3646 1087
  positions in direct lattice
  No initial velocities read in
 exchange correlation table for  LEXCH =        8
   RHO(1)=    0.500       N(1)  =     2000
   RHO(2)=  100.500       N(2)  =     4000
 


--------------------------------------------------------------------------------------------------------


 ion  position               nearest neighbor table
   1  0.000  0.000  0.000- 204 1.95 246 1.95 241 1.95 199 1.95 121 1.98 181 1.98   2 2.95   6 2.95

   2  0.000  0.000  0.167- 200 1.95 242 1.95 241 1.95 199 1.95 122 1.98 182 1.98   3 2.95   1 2.95

   3  0.000  0.000  0.333- 201 1.95 243 1.95 242 1.95 200 1.95 123 1.98 183 1.98   4 2.95   2 2.95

   4  0.000  0.000  0.500- 202 1.95 244 1.95 243 1.95 201 1.95 124 1.98 184 1.98   3 2.95   5 2.95

   5  0.000  0.000  0.667- 203 1.95 245 1.95 244 1.95 202 1.95 125 1.98 185 1.98   6 2.95   4 2.95

   6  0.000  0.000  0.833- 203 1.95 245 1.95 204 1.95 246 1.95 126 1.98 186 1.98   5 2.95   1 2.95

   7  0.000  0.500  0.000- 198 1.95 252 1.95 247 1.95 193 1.95 127 1.98 187 1.98   8 2.95  12 2.95

   8  0.000  0.500  0.167- 194 1.95 248 1.95 247 1.95 193 1.95 128 1.98 188 1.98   9 2.95   7 2.95

   9  0.000  0.500  0.333- 195 1.95 249 1.95 248 1.95 194 1.95 129 1.98 189 1.98  10 2.95   8 2.95

  10  0.000  0.500  0.500- 196 1.95 250 1.95 249 1.95 195 1.95 130 1.98 190 1.98   9 2.95  11 2.95

  11  0.000  0.500  0.667- 197 1.95 251 1.95 250 1.95 196 1.95 131 1.98 191 1.98  12 2.95  10 2.95

  12  0.000  0.500  0.833- 197 1.95 251 1.95 198 1.95 252 1.95 132 1.98 192 1.98  11 2.95   7 2.95

  13  0.500  0.000  0.000- 216 1.95 258 1.95 253 1.95 211 1.95 133 1.98 169 1.98  14 2.95  18 2.95

  14  0.500  0.000  0.167- 212 1.95 254 1.95 253 1.95 211 1.95 134 1.98 170 1.98  15 2.95  13 2.95

  15  0.500  0.000  0.333- 213 1.95 255 1.95 254 1.95 212 1.95 135 1.98 171 1.98  16 2.95  14 2.95

  16  0.500  0.000  0.500- 214 1.95 256 1.95 255 1.95 213 1.95 136 1.98 172 1.98  15 2.95  17 2.95

  17  0.500  0.000  0.667- 215 1.95 257 1.95 256 1.95 214 1.95 137 1.98 173 1.98  18 2.95  16 2.95

  18  0.500  0.000  0.833- 215 1.95 257 1.95 216 1.95 258 1.95 138 1.98 174 1.98  17 2.95  13 2.95

  19  0.500  0.500  0.000- 210 1.95 264 1.95 259 1.95 205 1.95 139 1.98 175 1.98  20 2.95  24 2.95

  20  0.500  0.500  0.167- 206 1.95 260 1.95 259 1.95 205 1.95 140 1.98 176 1.98  21 2.95  19 2.95

  21  0.500  0.500  0.333- 207 1.95 261 1.95 260 1.95 206 1.95 141 1.98 177 1.98  22 2.95  20 2.95

  22  0.500  0.500  0.500- 208 1.95 262 1.95 261 1.95 207 1.95 142 1.98 178 1.98  21 2.95  23 2.95

  23  0.500  0.500  0.667- 209 1.95 263 1.95 262 1.95 208 1.95 143 1.98 179 1.98  24 2.95  22 2.95

  24  0.500  0.500  0.833- 209 1.95 263 1.95 210 1.95 264 1.95 144 1.98 180 1.98  23 2.95  19 2.95

  25  0.250  0.250  0.000- 222 1.95 270 1.95 265 1.95 217 1.95  97 1.98 145 1.98  26 2.95  30 2.95

  26  0.250  0.250  0.167- 218 1.95 266 1.95 265 1.95 217 1.95  98 1.98 146 1.98  27 2.95  25 2.95

  27  0.250  0.250  0.333- 219 1.95 267 1.95 266 1.95 218 1.95  99 1.98 147 1.98  28 2.95  26 2.95

  28  0.250  0.250  0.500- 220 1.95 268 1.95 267 1.95 219 1.95 100 1.98 148 1.98  27 2.95  29 2.95

  29  0.250  0.250  0.667- 221 1.95 269 1.95 268 1.95 220 1.95 101 1.98 149 1.98  30 2.95  28 2.95

  30  0.250  0.250  0.833- 221 1.95 269 1.95 222 1.95 270 1.95 102 1.98 150 1.98  29 2.95  25 2.95

  31  0.250  0.750  0.000- 228 1.95 276 1.95 271 1.95 223 1.95 103 1.98 151 1.98  32 2.95  36 2.95

  32  0.250  0.750  0.167- 224 1.95 272 1.95 271 1.95 223 1.95 104 1.98 152 1.98  33 2.95  31 2.95

  33  0.250  0.750  0.333- 225 1.95 273 1.95 272 1.95 224 1.95 105 1.98 153 1.98  34 2.95  32 2.95

  34  0.250  0.750  0.500- 226 1.95 274 1.95 273 1.95 225 1.95 106 1.98 154 1.98  33 2.95  35 2.95

  35  0.250  0.750  0.667- 227 1.95 275 1.95 274 1.95 226 1.95 107 1.98 155 1.98  36 2.95  34 2.95

  36  0.250  0.750  0.833- 227 1.95 275 1.95 228 1.95 276 1.95 108 1.98 156 1.98  35 2.95  31 2.95

  37  0.750  0.250  0.000- 234 1.95 282 1.95 277 1.95 229 1.95 109 1.98 157 1.98  38 2.95  42 2.95

  38  0.750  0.250  0.167- 230 1.95 278 1.95 277 1.95 229 1.95 110 1.98 158 1.98  39 2.95  37 2.95

  39  0.750  0.250  0.333- 231 1.95 279 1.95 278 1.95 230 1.95 111 1.98 159 1.98  40 2.95  38 2.95

  40  0.750  0.250  0.500- 232 1.95 280 1.95 279 1.95 231 1.95 112 1.98 160 1.98  39 2.95  41 2.95

  41  0.750  0.250  0.667- 233 1.95 281 1.95 280 1.95 232 1.95 113 1.98 161 1.98  42 2.95  40 2.95

  42  0.750  0.250  0.833- 233 1.95 281 1.95 234 1.95 282 1.95 114 1.98 162 1.98  41 2.95  37 2.95

  43  0.750  0.750  0.000- 240 1.95 288 1.95 283 1.95 235 1.95 115 1.98 163 1.98  44 2.95  48 2.95

  44  0.750  0.750  0.167- 236 1.95 284 1.95 283 1.95 235 1.95 116 1.98 164 1.98  45 2.95  43 2.95

  45  0.750  0.750  0.333- 237 1.95 285 1.95 284 1.95 236 1.95 117 1.98 165 1.98  46 2.95  44 2.95

  46  0.750  0.750  0.500- 238 1.95 286 1.95 285 1.95 237 1.95 118 1.98 166 1.98  45 2.95  47 2.95

  47  0.750  0.750  0.667- 239 1.95 287 1.95 286 1.95 238 1.95 119 1.98 167 1.98  48 2.95  46 2.95

  48  0.750  0.750  0.833- 239 1.95 287 1.95 240 1.95 288 1.95 120 1.98 168 1.98  47 2.95  43 2.95

  49  0.000  0.250  0.083- 110 1.95 146 1.95 145 1.95 109 1.95 193 1.98 241 1.98  54 2.95  50 2.95

  50  0.000  0.250  0.250- 110 1.95 146 1.95 111 1.95 147 1.95 194 1.98 242 1.98  51 2.95  49 2.95

  51  0.000  0.250  0.417- 111 1.95 147 1.95 112 1.95 148 1.95 195 1.98 243 1.98  52 2.95  50 2.95

  52  0.000  0.250  0.583- 112 1.95 148 1.95 113 1.95 149 1.95 196 1.98 244 1.98  51 2.95  53 2.95

  53  0.000  0.250  0.750- 113 1.95 114 1.95 149 1.95 150 1.95 197 1.98 245 1.98  52 2.95  54 2.95

  54  0.000  0.250  0.917- 109 1.95 145 1.95 114 1.95 150 1.95 198 1.98 246 1.98  49 2.95  53 2.95

  55  0.000  0.750  0.083- 116 1.95 152 1.95 151 1.95 115 1.95 199 1.98 247 1.98  60 2.95  56 2.95

  56  0.000  0.750  0.250- 116 1.95 152 1.95 117 1.95 153 1.95 200 1.98 248 1.98  57 2.95  55 2.95

  57  0.000  0.750  0.417- 117 1.95 153 1.95 118 1.95 154 1.95 201 1.98 249 1.98  58 2.95  56 2.95

  58  0.000  0.750  0.583- 118 1.95 154 1.95 119 1.95 155 1.95 202 1.98 250 1.98  57 2.95  59 2.95

  59  0.000  0.750  0.750- 119 1.95 120 1.95 155 1.95 156 1.95 203 1.98 251 1.98  58 2.95  60 2.95

  60  0.000  0.750  0.917- 115 1.95 151 1.95 120 1.95 156 1.95 204 1.98 252 1.98  55 2.95  59 2.95

  61  0.500  0.250  0.083-  98 1.95 158 1.95 157 1.95  97 1.95 205 1.98 253 1.98  66 2.95  62 2.95

  62  0.500  0.250  0.250-  98 1.95 158 1.95  99 1.95 159 1.95 206 1.98 254 1.98  63 2.95  61 2.95

  63  0.500  0.250  0.417-  99 1.95 159 1.95 100 1.95 160 1.95 207 1.98 255 1.98  64 2.95  62 2.95

  64  0.500  0.250  0.583- 100 1.95 160 1.95 101 1.95 161 1.95 208 1.98 256 1.98  63 2.95  65 2.95

  65  0.500  0.250  0.750- 101 1.95 102 1.95 161 1.95 162 1.95 209 1.98 257 1.98  64 2.95  66 2.95

  66  0.500  0.250  0.917-  97 1.95 157 1.95 102 1.95 162 1.95 210 1.98 258 1.98  61 2.95  65 2.95

  67  0.500  0.750  0.083- 104 1.95 164 1.95 163 1.95 103 1.95 211 1.98 259 1.98  72 2.95  68 2.95

  68  0.500  0.750  0.250- 104 1.95 164 1.95 105 1.95 165 1.95 212 1.98 260 1.98  69 2.95  67 2.95

  69  0.500  0.750  0.417- 105 1.95 165 1.95 106 1.95 166 1.95 213 1.98 261 1.98  70 2.95  68 2.95

  70  0.500  0.750  0.583- 106 1.95 166 1.95 107 1.95 167 1.95 214 1.98 262 1.98  69 2.95  71 2.95

  71  0.500  0.750  0.750- 107 1.95 108 1.95 167 1.95 168 1.95 215 1.98 263 1.98  70 2.95  72 2.95

  72  0.500  0.750  0.917- 103 1.95 163 1.95 108 1.95 168 1.95 216 1.98 264 1.98  67 2.95  71 2.95

  73  0.250  0.000  0.083- 122 1.95 170 1.95 169 1.95 121 1.95 217 1.98 271 1.98  78 2.95  74 2.95

  74  0.250  0.000  0.250- 122 1.95 170 1.95 123 1.95 171 1.95 218 1.98 272 1.98  75 2.95  73 2.95

  75  0.250  0.000  0.417- 123 1.95 171 1.95 124 1.95 172 1.95 219 1.98 273 1.98  76 2.95  74 2.95

  76  0.250  0.000  0.583- 124 1.95 172 1.95 125 1.95 173 1.95 220 1.98 274 1.98  75 2.95  77 2.95

  77  0.250  0.000  0.750- 125 1.95 126 1.95 173 1.95 174 1.95 221 1.98 275 1.98  76 2.95  78 2.95

  78  0.250  0.000  0.917- 121 1.95 169 1.95 126 1.95 174 1.95 222 1.98 276 1.98  73 2.95  77 2.95

  79  0.250  0.500  0.083- 128 1.95 176 1.95 175 1.95 127 1.95 223 1.98 265 1.98  84 2.95  80 2.95

  80  0.250  0.500  0.250- 128 1.95 176 1.95 129 1.95 177 1.95 224 1.98 266 1.98  81 2.95  79 2.95

  81  0.250  0.500  0.417- 129 1.95 177 1.95 130 1.95 178 1.95 225 1.98 267 1.98  82 2.95  80 2.95

  82  0.250  0.500  0.583- 130 1.95 178 1.95 131 1.95 179 1.95 226 1.98 268 1.98  81 2.95  83 2.95

  83  0.250  0.500  0.750- 131 1.95 132 1.95 179 1.95 180 1.95 227 1.98 269 1.98  82 2.95  84 2.95

  84  0.250  0.500  0.917- 127 1.95 175 1.95 132 1.95 180 1.95 228 1.98 270 1.98  79 2.95  83 2.95

  85  0.750  0.000  0.083- 134 1.95 182 1.95 181 1.95 133 1.95 229 1.98 283 1.98  90 2.95  86 2.95

  86  0.750  0.000  0.250- 134 1.95 182 1.95 135 1.95 183 1.95 230 1.98 284 1.98  87 2.95  85 2.95

  87  0.750  0.000  0.417- 135 1.95 183 1.95 136 1.95 184 1.95 231 1.98 285 1.98  88 2.95  86 2.95

  88  0.750  0.000  0.583- 136 1.95 184 1.95 137 1.95 185 1.95 232 1.98 286 1.98  87 2.95  89 2.95

  89  0.750  0.000  0.750- 137 1.95 138 1.95 185 1.95 186 1.95 233 1.98 287 1.98  88 2.95  90 2.95

  90  0.750  0.000  0.917- 133 1.95 181 1.95 138 1.95 186 1.95 234 1.98 288 1.98  85 2.95  89 2.95

  91  0.750  0.500  0.083- 140 1.95 188 1.95 187 1.95 139 1.95 235 1.98 277 1.98  96 2.95  92 2.95

  92  0.750  0.500  0.250- 140 1.95 188 1.95 141 1.95 189 1.95 236 1.98 278 1.98  93 2.95  91 2.95

  93  0.750  0.500  0.417- 141 1.95 189 1.95 142 1.95 190 1.95 237 1.98 279 1.98  94 2.95  92 2.95

  94  0.750  0.500  0.583- 142 1.95 190 1.95 143 1.95 191 1.95 238 1.98 280 1.98  93 2.95  95 2.95

  95  0.750  0.500  0.750- 143 1.95 144 1.95 191 1.95 192 1.95 239 1.98 281 1.98  94 2.95  96 2.95

  96  0.750  0.500  0.917- 139 1.95 187 1.95 144 1.95 192 1.95 240 1.98 282 1.98  91 2.95  95 2.95

  97  0.402  0.250  0.000-  66 1.95  61 1.95  25 1.98
  98  0.402  0.250  0.167-  62 1.95  61 1.95  26 1.98
  99  0.402  0.250  0.333-  63 1.95  62 1.95  27 1.98
 100  0.402  0.250  0.500-  64 1.95  63 1.95  28 1.98
 101  0.402  0.250  0.667-  65 1.95  64 1.95  29 1.98
 102  0.402  0.250  0.833-  65 1.95  66 1.95  30 1.98
 103  0.402  0.750  0.000-  72 1.95  67 1.95  31 1.98
 104  0.402  0.750  0.167-  68 1.95  67 1.95  32 1.98
 105  0.402  0.750  0.333-  69 1.95  68 1.95  33 1.98
 106  0.402  0.750  0.500-  70 1.95  69 1.95  34 1.98
 107  0.402  0.750  0.667-  71 1.95  70 1.95  35 1.98
 108  0.402  0.750  0.833-  71 1.95  72 1.95  36 1.98
 109  0.902  0.250  0.000-  54 1.95  49 1.95  37 1.98
 110  0.902  0.250  0.167-  50 1.95  49 1.95  38 1.98
 111  0.902  0.250  0.333-  51 1.95  50 1.95  39 1.98
 112  0.902  0.250  0.500-  52 1.95  51 1.95  40 1.98
 113  0.902  0.250  0.667-  53 1.95  52 1.95  41 1.98
 114  0.902  0.250  0.833-  53 1.95  54 1.95  42 1.98
 115  0.902  0.750  0.000-  60 1.95  55 1.95  43 1.98
 116  0.902  0.750  0.167-  56 1.95  55 1.95  44 1.98
 117  0.902  0.750  0.333-  57 1.95  56 1.95  45 1.98
 118  0.902  0.750  0.500-  58 1.95  57 1.95  46 1.98
 119  0.902  0.750  0.667-  59 1.95  58 1.95  47 1.98
 120  0.902  0.750  0.833-  59 1.95  60 1.95  48 1.98
 121  0.152  0.000  0.000-  78 1.95  73 1.95   1 1.98
 122  0.152  0.000  0.167-  74 1.95  73 1.95   2 1.98
 123  0.152  0.000  0.333-  75 1.95  74 1.95   3 1.98
 124  0.152  0.000  0.500-  76 1.95  75 1.95   4 1.98
 125  0.152  0.000  0.667-  77 1.95  76 1.95   5 1.98
 126  0.152  0.000  0.833-  77 1.95  78 1.95   6 1.98
 127  0.152  0.500  0.000-  84 1.95  79 1.95   7 1.98
 128  0.152  0.500  0.167-  80 1.95  79 1.95   8 1.98
 129  0.152  0.500  0.333-  81 1.95  80 1.95   9 1.98
 130  0.152  0.500  0.500-  82 1.95  81 1.95  10 1.98
 131  0.152  0.500  0.667-  83 1.95  82 1.95  11 1.98
 132  0.152  0.500  0.833-  83 1.95  84 1.95  12 1.98
 133  0.652  0.000  0.000-  90 1.95  85 1.95  13 1.98
 134  0.652  0.000  0.167-  86 1.95  85 1.95  14 1.98
 135  0.652  0.000  0.333-  87 1.95  86 1.95  15 1.98
 136  0.652  0.000  0.500-  88 1.95  87 1.95  16 1.98
 137  0.652  0.000  0.667-  89 1.95  88 1.95  17 1.98
 138  0.652  0.000  0.833-  89 1.95  90 1.95  18 1.98
 139  0.652  0.500  0.000-  96 1.95  91 1.95  19 1.98
 140  0.652  0.500  0.167-  92 1.95  91 1.95  20 1.98
 141  0.652  0.500  0.333-  93 1.95  92 1.95  21 1.98
 142  0.652  0.500  0.500-  94 1.95  93 1.95  22 1.98
 143  0.652  0.500  0.667-  95 1.95  94 1.95  23 1.98
 144  0.652  0.500  0.833-  95 1.95  96 1.95  24 1.98
 145  0.098  0.250  0.000-  54 1.95  49 1.95  25 1.98
 146  0.098  0.250  0.167-  50 1.95  49 1.95  26 1.98
 147  0.098  0.250  0.333-  51 1.95  50 1.95  27 1.98
 148  0.098  0.250  0.500-  52 1.95  51 1.95  28 1.98
 149  0.098  0.250  0.667-  53 1.95  52 1.95  29 1.98
 150  0.098  0.250  0.833-  53 1.95  54 1.95  30 1.98
 151  0.098  0.750  0.000-  60 1.95  55 1.95  31 1.98
 152  0.098  0.750  0.167-  56 1.95  55 1.95  32 1.98
 153  0.098  0.750  0.333-  57 1.95  56 1.95  33 1.98
 154  0.098  0.750  0.500-  58 1.95  57 1.95  34 1.98
 155  0.098  0.750  0.667-  59 1.95  58 1.95  35 1.98
 156  0.098  0.750  0.833-  59 1.95  60 1.95  36 1.98
 157  0.598  0.250  0.000-  66 1.95  61 1.95  37 1.98
 158  0.598  0.250  0.167-  62 1.95  61 1.95  38 1.98
 159  0.598  0.250  0.333-  63 1.95  62 1.95  39 1.98
 160  0.598  0.250  0.500-  64 1.95  63 1.95  40 1.98
 161  0.598  0.250  0.667-  65 1.95  64 1.95  41 1.98
 162  0.598  0.250  0.833-  65 1.95  66 1.95  42 1.98
 163  0.598  0.750  0.000-  72 1.95  67 1.95  43 1.98
 164  0.598  0.750  0.167-  68 1.95  67 1.95  44 1.98
 165  0.598  0.750  0.333-  69 1.95  68 1.95  45 1.98
 166  0.598  0.750  0.500-  70 1.95  69 1.95  46 1.98
 167  0.598  0.750  0.667-  71 1.95  70 1.95  47 1.98
 168  0.598  0.750  0.833-  71 1.95  72 1.95  48 1.98
 169  0.348  0.000  0.000-  78 1.95  73 1.95  13 1.98
 170  0.348  0.000  0.167-  74 1.95  73 1.95  14 1.98
 171  0.348  0.000  0.333-  75 1.95  74 1.95  15 1.98
 172  0.348  0.000  0.500-  76 1.95  75 1.95  16 1.98
 173  0.348  0.000  0.667-  77 1.95  76 1.95  17 1.98
 174  0.348  0.000  0.833-  77 1.95  78 1.95  18 1.98
 175  0.348  0.500  0.000-  84 1.95  79 1.95  19 1.98
 176  0.348  0.500  0.167-  80 1.95  79 1.95  20 1.98
 177  0.348  0.500  0.333-  81 1.95  80 1.95  21 1.98
 178  0.348  0.500  0.500-  82 1.95  81 1.95  22 1.98
 179  0.348  0.500  0.667-  83 1.95  82 1.95  23 1.98
 180  0.348  0.500  0.833-  83 1.95  84 1.95  24 1.98
 181  0.848  0.000  0.000-  90 1.95  85 1.95   1 1.98
 182  0.848  0.000  0.167-  86 1.95  85 1.95   2 1.98
 183  0.848  0.000  0.333-  87 1.95  86 1.95   3 1.98
 184  0.848  0.000  0.500-  88 1.95  87 1.95   4 1.98
 185  0.848  0.000  0.667-  89 1.95  88 1.95   5 1.98
 186  0.848  0.000  0.833-  89 1.95  90 1.95   6 1.98
 187  0.848  0.500  0.000-  96 1.95  91 1.95   7 1.98
 188  0.848  0.500  0.167-  92 1.95  91 1.95   8 1.98
 189  0.848  0.500  0.333-  93 1.95  92 1.95   9 1.98
 190  0.848  0.500  0.500-  94 1.95  93 1.95  10 1.98
 191  0.848  0.500  0.667-  95 1.95  94 1.95  11 1.98
 192  0.848  0.500  0.833-  95 1.95  96 1.95  12 1.98
 193  0.000  0.402  0.083-   8 1.95   7 1.95  49 1.98
 194  0.000  0.402  0.250-   8 1.95   9 1.95  50 1.98
 195  0.000  0.402  0.417-   9 1.95  10 1.95  51 1.98
 196  0.000  0.402  0.583-  10 1.95  11 1.95  52 1.98
 197  0.000  0.402  0.750-  11 1.95  12 1.95  53 1.98
 198  0.000  0.402  0.917-   7 1.95  12 1.95  54 1.98
 199  0.000  0.902  0.083-   2 1.95   1 1.95  55 1.98
 200  0.000  0.902  0.250-   2 1.95   3 1.95  56 1.98
 201  0.000  0.902  0.417-   3 1.95   4 1.95  57 1.98
 202  0.000  0.902  0.583-   4 1.95   5 1.95  58 1.98
 203  0.000  0.902  0.750-   5 1.95   6 1.95  59 1.98
 204  0.000  0.902  0.917-   1 1.95   6 1.95  60 1.98
 205  0.500  0.402  0.083-  20 1.95  19 1.95  61 1.98
 206  0.500  0.402  0.250-  20 1.95  21 1.95  62 1.98
 207  0.500  0.402  0.417-  21 1.95  22 1.95  63 1.98
 208  0.500  0.402  0.583-  22 1.95  23 1.95  64 1.98
 209  0.500  0.402  0.750-  23 1.95  24 1.95  65 1.98
 210  0.500  0.402  0.917-  19 1.95  24 1.95  66 1.98
 211  0.500  0.902  0.083-  14 1.95  13 1.95  67 1.98
 212  0.500  0.902  0.250-  14 1.95  15 1.95  68 1.98
 213  0.500  0.902  0.417-  15 1.95  16 1.95  69 1.98
 214  0.500  0.902  0.583-  16 1.95  17 1.95  70 1.98
 215  0.500  0.902  0.750-  17 1.95  18 1.95  71 1.98
 216  0.500  0.902  0.917-  13 1.95  18 1.95  72 1.98
 217  0.250  0.152  0.083-  26 1.95  25 1.95  73 1.98
 218  0.250  0.152  0.250-  26 1.95  27 1.95  74 1.98
 219  0.250  0.152  0.417-  27 1.95  28 1.95  75 1.98
 220  0.250  0.152  0.583-  28 1.95  29 1.95  76 1.98
 221  0.250  0.152  0.750-  29 1.95  30 1.95  77 1.98
 222  0.250  0.152  0.917-  25 1.95  30 1.95  78 1.98
 223  0.250  0.652  0.083-  32 1.95  31 1.95  79 1.98
 224  0.250  0.652  0.250-  32 1.95  33 1.95  80 1.98
 225  0.250  0.652  0.417-  33 1.95  34 1.95  81 1.98
 226  0.250  0.652  0.583-  34 1.95  35 1.95  82 1.98
 227  0.250  0.652  0.750-  35 1.95  36 1.95  83 1.98
 228  0.250  0.652  0.917-  31 1.95  36 1.95  84 1.98
 229  0.750  0.152  0.083-  38 1.95  37 1.95  85 1.98
 230  0.750  0.152  0.250-  38 1.95  39 1.95  86 1.98
 231  0.750  0.152  0.417-  39 1.95  40 1.95  87 1.98
 232  0.750  0.152  0.583-  40 1.95  41 1.95  88 1.98
 233  0.750  0.152  0.750-  41 1.95  42 1.95  89 1.98
 234  0.750  0.152  0.917-  37 1.95  42 1.95  90 1.98
 235  0.750  0.652  0.083-  44 1.95  43 1.95  91 1.98
 236  0.750  0.652  0.250-  44 1.95  45 1.95  92 1.98
 237  0.750  0.652  0.417-  45 1.95  46 1.95  93 1.98
 238  0.750  0.652  0.583-  46 1.95  47 1.95  94 1.98
 239  0.750  0.652  0.750-  47 1.95  48 1.95  95 1.98
 240  0.750  0.652  0.917-  43 1.95  48 1.95  96 1.98
 241  0.000  0.098  0.083-   2 1.95   1 1.95  49 1.98
 242  0.000  0.098  0.250-   2 1.95   3 1.95  50 1.98
 243  0.000  0.098  0.417-   3 1.95   4 1.95  51 1.98
 244  0.000  0.098  0.583-   4 1.95   5 1.95  52 1.98
 245  0.000  0.098  0.750-   5 1.95   6 1.95  53 1.98
 246  0.000  0.098  0.917-   1 1.95   6 1.95  54 1.98
 247  0.000  0.598  0.083-   8 1.95   7 1.95  55 1.98
 248  0.000  0.598  0.250-   8 1.95   9 1.95  56 1.98
 249  0.000  0.598  0.417-   9 1.95  10 1.95  57 1.98
 250  0.000  0.598  0.583-  10 1.95  11 1.95  58 1.98
 251  0.000  0.598  0.750-  11 1.95  12 1.95  59 1.98
 252  0.000  0.598  0.917-   7 1.95  12 1.95  60 1.98
 253  0.500  0.098  0.083-  14 1.95  13 1.95  61 1.98
 254  0.500  0.098  0.250-  14 1.95  15 1.95  62 1.98
 255  0.500  0.098  0.417-  15 1.95  16 1.95  63 1.98
 256  0.500  0.098  0.583-  16 1.95  17 1.95  64 1.98
 257  0.500  0.098  0.750-  17 1.95  18 1.95  65 1.98
 258  0.500  0.098  0.917-  13 1.95  18 1.95  66 1.98
 259  0.500  0.598  0.083-  20 1.95  19 1.95  67 1.98
 260  0.500  0.598  0.250-  20 1.95  21 1.95  68 1.98
 261  0.500  0.598  0.417-  21 1.95  22 1.95  69 1.98
 262  0.500  0.598  0.583-  22 1.95  23 1.95  70 1.98
 263  0.500  0.598  0.750-  23 1.95  24 1.95  71 1.98
 264  0.500  0.598  0.917-  19 1.95  24 1.95  72 1.98
 265  0.250  0.348  0.083-  26 1.95  25 1.95  79 1.98
 266  0.250  0.348  0.250-  26 1.95  27 1.95  80 1.98
 267  0.250  0.348  0.417-  27 1.95  28 1.95  81 1.98
 268  0.250  0.348  0.583-  28 1.95  29 1.95  82 1.98
 269  0.250  0.348  0.750-  29 1.95  30 1.95  83 1.98
 270  0.250  0.348  0.917-  25 1.95  30 1.95  84 1.98
 271  0.250  0.848  0.083-  32 1.95  31 1.95  73 1.98
 272  0.250  0.848  0.250-  32 1.95  33 1.95  74 1.98
 273  0.250  0.848  0.417-  33 1.95  34 1.95  75 1.98
 274  0.250  0.848  0.583-  34 1.95  35 1.95  76 1.98
 275  0.250  0.848  0.750-  35 1.95  36 1.95  77 1.98
 276  0.250  0.848  0.917-  31 1.95  36 1.95  78 1.98
 277  0.750  0.348  0.083-  38 1.95  37 1.95  91 1.98
 278  0.750  0.348  0.250-  38 1.95  39 1.95  92 1.98
 279  0.750  0.348  0.417-  39 1.95  40 1.95  93 1.98
 280  0.750  0.348  0.583-  40 1.95  41 1.95  94 1.98
 281  0.750  0.348  0.750-  41 1.95  42 1.95  95 1.98
 282  0.750  0.348  0.917-  37 1.95  42 1.95  96 1.98
 283  0.750  0.848  0.083-  44 1.95  43 1.95  85 1.98
 284  0.750  0.848  0.250-  44 1.95  45 1.95  86 1.98
 285  0.750  0.848  0.417-  45 1.95  46 1.95  87 1.98
 286  0.750  0.848  0.583-  46 1.95  47 1.95  88 1.98
 287  0.750  0.848  0.750-  47 1.95  48 1.95  89 1.98
 288  0.750  0.848  0.917-  43 1.95  48 1.95  90 1.98
 

IMPORTANT INFORMATION: All symmetrisations will be switched off!
NOSYMM: (Re-)initialisation of all symmetry stuff for point group C_1.

 
 
 KPOINTS: k-points                                

Automatic generation of k-mesh.
Space group operators:
 irot       det(A)        alpha          n_x          n_y          n_z        tau_x        tau_y        tau_z
    1     1.000000     0.000000     1.000000     0.000000     0.000000     0.000000     0.000000     0.000000
 
 Subroutine IBZKPT returns following result:
 ===========================================
 
 Found      1 irreducible k-points:
 
 Following reciprocal coordinates:
            Coordinates               Weight
  0.000000  0.000000  0.000000      1.000000
 
 Following cartesian coordinates:
            Coordinates               Weight
  0.000000  0.000000  0.000000      1.000000
 


--------------------------------------------------------------------------------------------------------




 Dimension of arrays:
   k-points           NKPTS =      1   k-points in BZ     NKDIM =      1   number of bands    NBANDS=    924
   number of dos      NEDOS =    301   number of ions     NIONS =    288
   non local maximal  LDIM  =      5   non local SUM 2l+1 LMDIM =     15
   total plane-waves  NPLWV = 175000
   max r-space proj   IRMAX =   1358   max aug-charges    IRDMAX=   4251
   dimension x,y,z NGX =    50 NGY =   50 NGZ =   70
   dimension x,y,z NGXF=   100 NGYF=  100 NGZF=  140
   support grid    NGXF=   100 NGYF=  100 NGZF=  140
   ions per type =              96 192
 NGX,Y,Z   is equivalent  to a cutoff of   6.41,  6.41,  6.57 a.u.
 NGXF,Y,Z  is equivalent  to a cutoff of  12.81, 12.81, 13.13 a.u.


 I would recommend the setting:
   dimension x,y,z NGX =    50 NGY =   50 NGZ =   69
 SYSTEM =  unknown system                          
 POSCAR =  TiO2_rutile_15K (JACS 109 3639-3646 1087

 Startparameter for this run:
   NWRITE =      2    write-flag & timer
   PREC   = n         normal or accurate (medium, high low for compatibility)
   ISTART =      0    job   : 0-new  1-cont  2-samecut
   ICHARG =      2    charge: 1-file 2-atom 10-const
   ISPIN  =      1    spin polarized calculation?
   LNONCOLLINEAR =      F non collinear calculations
   LSORBIT =      F    spin-orbit coupling
   INIWAV =      1    electr: 0-lowe 1-rand  2-diag
   LASPH  =      F    aspherical Exc in radial PAW
   METAGGA=      F    non-selfconsistent MetaGGA calc.

 Electronic Relaxation 1
   ENCUT  =  250.0 eV  18.37 Ry    4.29 a.u.  16.73 16.73 22.85*2*pi/ulx,y,z
   ENINI  =  250.0     initial cutoff
   ENAUG  =  412.4 eV  augmentation charge cutoff
   NELM   =     60;   NELMIN=  2; NELMDL= -5     # of ELM steps 
   EDIFF  = 0.1E-03   stopping-criterion for ELM
   LREAL  =      T    real-space projection
   NLSPLINE    = F    spline interpolate recip. space projectors
   LCOMPAT=      F    compatible to vasp.4.4
   GGA_COMPAT  = T    GGA compatible to vasp.4.4-vasp.4.6
   LMAXPAW     = -100 max onsite density
   LMAXMIX     =    4 max onsite mixed and CHGCAR
   VOSKOWN=      0    Vosko Wilk Nusair interpolation
   ROPT   =   -0.00050  -0.00050
 Ionic relaxation
   EDIFFG = 0.1E-02   stopping-criterion for IOM
   NSW    =    200    number of steps for IOM
   NBLOCK =      1;   KBLOCK =    200    inner block; outer block 
   IBRION =      1    ionic relax: 0-MD 1-quasi-New 2-CG
   NFREE  =      0    steps in history (QN), initial steepest desc. (CG)
   ISIF   =      2    stress and relaxation
   IWAVPR =     11    prediction:  0-non 1-charg 2-wave 3-comb
   ISYM   =      0    0-nonsym 1-usesym 2-fastsym
   LCORR  =      T    Harris-Foulkes like correction to forces

   POTIM  = 0.5000    time-step for ionic-motion
   TEIN   =    0.0    initial temperature
   TEBEG  =    0.0;   TEEND  =   0.0 temperature during run
   SMASS  =  -3.00    Nose mass-parameter (am)
   estimated Nose-frequenzy (Omega)   =  0.10E-29 period in steps =****** mass=  -0.385E-26a.u.
   SCALEE = 1.0000    scale energy and forces
   NPACO  =    256;   APACO  = 16.0  distance and # of slots for P.C.
   PSTRESS=    0.0 pullay stress

  Mass of Ions in am
   POMASS =  47.88 16.00
  Ionic Valenz
   ZVAL   =   4.00  6.00
  Atomic Wigner-Seitz radii
   RWIGS  =  -1.00 -1.00
  virtual crystal weights 
   VCA    =   1.00  1.00
   NELECT =    1537.0000    total number of electrons
   NUPDOWN=      -1.0000    fix difference up-down

 DOS related values:
   EMIN   =  10.00;   EMAX   =-10.00  energy-range for DOS
   EFERMI =   0.00
   ISMEAR =     0;   SIGMA  =   0.05  broadening in eV -4-tet -1-fermi 0-gaus

 Electronic relaxation 2 (details)
   IALGO  =     68    algorithm
   LDIAG  =      T    sub-space diagonalisation (order eigenvalues)
   LSUBROT=      F    optimize rotation matrix (better conditioning)
   TURBO    =      0    0=normal 1=particle mesh
   IRESTART =      0    0=no restart 2=restart with 2 vectors
   NREBOOT  =      0    no. of reboots
   NMIN     =      0    reboot dimension
   EREF     =   0.00    reference energy to select bands
   IMIX   =      4    mixing-type and parameters
     AMIX     =   0.40;   BMIX     =  1.00
     AMIX_MAG =   0.40;   BMIX_MAG =  1.00
     AMIN     =   0.10
     WC   =   100.;   INIMIX=   1;  MIXPRE=   1;  MAXMIX=  40

 Intra band minimization:
   WEIMIN = 0.0010     energy-eigenvalue tresh-hold
   EBREAK =  0.27E-07  absolut break condition
   DEPER  =   0.30     relativ break condition  

   TIME   =   0.40     timestep for ELM

  volume/ion in A,a.u.               =      10.36        69.90
  Fermi-wavevector in a.u.,A,eV,Ry     =   1.312445  2.480161 23.436197  1.722512
  Thomas-Fermi vector in A             =   2.442837
 
 Write flags
   LWAVE        =      T    write WAVECAR
   LDOWNSAMPLE  =      F    k-point downsampling of WAVECAR
   LCHARG       =      T    write CHGCAR
   LVTOT        =      F    write LOCPOT, total local potential
   LVHAR        =      F    write LOCPOT, Hartree potential only
   LELF         =      F    write electronic localiz. function (ELF)
   LORBIT       =     10    0 simple, 1 ext, 2 COOP (PROOUT), +10 PAW based schemes


 Dipole corrections
   LMONO  =      F    monopole corrections only (constant potential shift)
   LDIPOL =      F    correct potential (dipole corrections)
   IDIPOL =      0    1-x, 2-y, 3-z, 4-all directions 
   EPSILON=  1.0000000 bulk dielectric constant

 LDA+U is selected, type is set to LDAUTYPE =  2
   angular momentum for each species LDAUL =     2   -1
   U (eV)           for each species LDAUU =   4.0  0.0
   J (eV)           for each species LDAUJ =   0.1  0.0
 Exchange correlation treatment:
   GGA     =    --    GGA type
   LEXCH   =     8    internal setting for exchange type
   VOSKOWN=      0    Vosko Wilk Nusair interpolation
   LHFCALC =     F    Hartree Fock is set to
   LHFONE  =     F    Hartree Fock one center treatment
   AEXX    =    0.0000 exact exchange contribution

 Linear response parameters
   LEPSILON=     F    determine dielectric tensor
   LRPA    =     F    only Hartree local field effects (RPA)
   LNABLA  =     F    use nabla operator in PAW spheres
   LVEL    =     F    velocity operator in full k-point grid
   LINTERFAST=   F  fast interpolation
   KINTER  =     0    interpolate to denser k-point grid
   CSHIFT  =0.1000    complex shift for real part using Kramers Kronig
   OMEGAMAX=  -1.0    maximum frequency
   DEG_THRESHOLD= 0.2000000E-02 threshold for treating states as degnerate
   RTIME   =   -0.100 relaxation time in fs
  (WPLASMAI=    0.000 imaginary part of plasma frequency in eV, 0.658/RTIME)
   DFIELD  = 0.0000000 0.0000000 0.0000000 field for delta impulse in time
 
 Orbital magnetization related:
   ORBITALMAG=     F  switch on orbital magnetization
   LCHIMAG   =     F  perturbation theory with respect to B field
   DQ        =  0.001000  dq finite difference perturbation B field
   LLRAUG    =     F  two centre corrections for induced B field



--------------------------------------------------------------------------------------------------------


 quasi-Newton-method for relaxation of ions
 charge density and potential will be updated during run
 non-spin polarized calculation
 RMM-DIIS sequential band-by-band and
  variant of blocked Davidson during initial phase
 perform sub-space diagonalisation
    before iterative eigenvector-optimisation
 modified Broyden-mixing scheme, WC =      100.0
 initial mixing is a Kerker type mixing with AMIX =  0.4000 and BMIX =      1.0000
 Hartree-type preconditioning will be used
 using additional bands          155
 real space projection scheme for non local part
 use partial core corrections
 calculate Harris-corrections to forces 
   (improved forces if not selfconsistent)
 use gradient corrections 
 use of overlap-Matrix (Vanderbilt PP)
 Gauss-broadening in eV      SIGMA  =   0.05


--------------------------------------------------------------------------------------------------------


  energy-cutoff  :      250.00
  volume of cell :     2983.01
      direct lattice vectors                 reciprocal lattice vectors
    12.973031998  0.000000000  0.000000000     0.077082983  0.000000000  0.000000000
     0.000000000 12.973031998  0.000000000     0.000000000  0.077082983  0.000000000
     0.000000000  0.000000000 17.724420547     0.000000000  0.000000000  0.056419334

  length of vectors
    12.973031998 12.973031998 17.724420547     0.077082983  0.077082983  0.056419334


 
 k-points in units of 2pi/SCALE and weight: k-points                                
   0.00000000  0.00000000  0.00000000       1.000
 
 k-points in reciprocal lattice and weights: k-points                                
   0.00000000  0.00000000  0.00000000       1.000
 
 position of ions in fractional coordinates (direct lattice) 
   0.00000000  0.00000000  0.00000000
   0.00000000  0.00000000  0.16666667
   0.00000000  0.00000000  0.33333334
   0.00000000  0.00000000  0.50000000
   0.00000000  0.00000000  0.66666669
   0.00000000  0.00000000  0.83333331
   0.00000000  0.50000000  0.00000000
   0.00000000  0.50000000  0.16666667
   0.00000000  0.50000000  0.33333334
   0.00000000  0.50000000  0.50000000
   0.00000000  0.50000000  0.66666669
   0.00000000  0.50000000  0.83333331
   0.50000000  0.00000000  0.00000000
   0.50000000  0.00000000  0.16666667
   0.50000000  0.00000000  0.33333334
   0.50000000  0.00000000  0.50000000
   0.50000000  0.00000000  0.66666669
   0.50000000  0.00000000  0.83333331
   0.50000000  0.50000000  0.00000000
   0.50000000  0.50000000  0.16666667
   0.50000000  0.50000000  0.33333334
   0.50000000  0.50000000  0.50000000
   0.50000000  0.50000000  0.66666669
   0.50000000  0.50000000  0.83333331
   0.25000000  0.25000000  0.00000000
   0.25000000  0.25000000  0.16666667
   0.25000000  0.25000000  0.33333334
   0.25000000  0.25000000  0.50000000
   0.25000000  0.25000000  0.66666669
   0.25000000  0.25000000  0.83333331
   0.25000000  0.75000000  0.00000000
   0.25000000  0.75000000  0.16666667
   0.25000000  0.75000000  0.33333334
   0.25000000  0.75000000  0.50000000
   0.25000000  0.75000000  0.66666669
   0.25000000  0.75000000  0.83333331
   0.75000000  0.25000000  0.00000000
   0.75000000  0.25000000  0.16666667
   0.75000000  0.25000000  0.33333334
   0.75000000  0.25000000  0.50000000
   0.75000000  0.25000000  0.66666669
   0.75000000  0.25000000  0.83333331
   0.75000000  0.75000000  0.00000000
   0.75000000  0.75000000  0.16666667
   0.75000000  0.75000000  0.33333334
   0.75000000  0.75000000  0.50000000
   0.75000000  0.75000000  0.66666669
   0.75000000  0.75000000  0.83333331
   0.00000000  0.25000000  0.08333334
   0.00000000  0.25000000  0.25000000
   0.00000000  0.25000000  0.41666666
   0.00000000  0.25000000  0.58333331
   0.00000000  0.25000000  0.75000000
   0.00000000  0.25000000  0.91666669
   0.00000000  0.75000000  0.08333334
   0.00000000  0.75000000  0.25000000
   0.00000000  0.75000000  0.41666666
   0.00000000  0.75000000  0.58333331
   0.00000000  0.75000000  0.75000000
   0.00000000  0.75000000  0.91666669
   0.50000000  0.25000000  0.08333334
   0.50000000  0.25000000  0.25000000
   0.50000000  0.25000000  0.41666666
   0.50000000  0.25000000  0.58333331
   0.50000000  0.25000000  0.75000000
   0.50000000  0.25000000  0.91666669
   0.50000000  0.75000000  0.08333334
   0.50000000  0.75000000  0.25000000
   0.50000000  0.75000000  0.41666666
   0.50000000  0.75000000  0.58333331
   0.50000000  0.75000000  0.75000000
   0.50000000  0.75000000  0.91666669
   0.25000000  0.00000000  0.08333334
   0.25000000  0.00000000  0.25000000
   0.25000000  0.00000000  0.41666666
   0.25000000  0.00000000  0.58333331
   0.25000000  0.00000000  0.75000000
   0.25000000  0.00000000  0.91666669
   0.25000000  0.50000000  0.08333334
   0.25000000  0.50000000  0.25000000
   0.25000000  0.50000000  0.41666666
   0.25000000  0.50000000  0.58333331
   0.25000000  0.50000000  0.75000000
   0.25000000  0.50000000  0.91666669
   0.75000000  0.00000000  0.08333334
   0.75000000  0.00000000  0.25000000
   0.75000000  0.00000000  0.41666666
   0.75000000  0.00000000  0.58333331
   0.75000000  0.00000000  0.75000000
   0.75000000  0.00000000  0.91666669
   0.75000000  0.50000000  0.08333334
   0.75000000  0.50000000  0.25000000
   0.75000000  0.50000000  0.41666666
   0.75000000  0.50000000  0.58333331
   0.75000000  0.50000000  0.75000000
   0.75000000  0.50000000  0.91666669
   0.40234500  0.25000000  0.00000000
   0.40234500  0.25000000  0.16666667
   0.40234500  0.25000000  0.33333334
   0.40234500  0.25000000  0.50000000
   0.40234500  0.25000000  0.66666669
   0.40234500  0.25000000  0.83333331
   0.40234500  0.75000000  0.00000000
   0.40234500  0.75000000  0.16666667
   0.40234500  0.75000000  0.33333334
   0.40234500  0.75000000  0.50000000
   0.40234500  0.75000000  0.66666669
   0.40234500  0.75000000  0.83333331
   0.90234500  0.25000000  0.00000000
   0.90234500  0.25000000  0.16666667
   0.90234500  0.25000000  0.33333334
   0.90234500  0.25000000  0.50000000
   0.90234500  0.25000000  0.66666669
   0.90234500  0.25000000  0.83333331
   0.90234500  0.75000000  0.00000000
   0.90234500  0.75000000  0.16666667
   0.90234500  0.75000000  0.33333334
   0.90234500  0.75000000  0.50000000
   0.90234500  0.75000000  0.66666669
   0.90234500  0.75000000  0.83333331
   0.15234500  0.00000000  0.00000000
   0.15234500  0.00000000  0.16666667
   0.15234500  0.00000000  0.33333334
   0.15234500  0.00000000  0.50000000
   0.15234500  0.00000000  0.66666669
   0.15234500  0.00000000  0.83333331
   0.15234500  0.50000000  0.00000000
   0.15234500  0.50000000  0.16666667
   0.15234500  0.50000000  0.33333334
   0.15234500  0.50000000  0.50000000
   0.15234500  0.50000000  0.66666669
   0.15234500  0.50000000  0.83333331
   0.65234500  0.00000000  0.00000000
   0.65234500  0.00000000  0.16666667
   0.65234500  0.00000000  0.33333334
   0.65234500  0.00000000  0.50000000
   0.65234500  0.00000000  0.66666669
   0.65234500  0.00000000  0.83333331
   0.65234500  0.50000000  0.00000000
   0.65234500  0.50000000  0.16666667
   0.65234500  0.50000000  0.33333334
   0.65234500  0.50000000  0.50000000
   0.65234500  0.50000000  0.66666669
   0.65234500  0.50000000  0.83333331
   0.09765500  0.25000000  0.00000000
   0.09765500  0.25000000  0.16666667
   0.09765500  0.25000000  0.33333334
   0.09765500  0.25000000  0.50000000
   0.09765500  0.25000000  0.66666669
   0.09765500  0.25000000  0.83333331
   0.09765500  0.75000000  0.00000000
   0.09765500  0.75000000  0.16666667
   0.09765500  0.75000000  0.33333334
   0.09765500  0.75000000  0.50000000
   0.09765500  0.75000000  0.66666669
   0.09765500  0.75000000  0.83333331
   0.59765500  0.25000000  0.00000000
   0.59765500  0.25000000  0.16666667
   0.59765500  0.25000000  0.33333334
   0.59765500  0.25000000  0.50000000
   0.59765500  0.25000000  0.66666669
   0.59765500  0.25000000  0.83333331
   0.59765500  0.75000000  0.00000000
   0.59765500  0.75000000  0.16666667
   0.59765500  0.75000000  0.33333334
   0.59765500  0.75000000  0.50000000
   0.59765500  0.75000000  0.66666669
   0.59765500  0.75000000  0.83333331
   0.34765500  0.00000000  0.00000000
   0.34765500  0.00000000  0.16666667
   0.34765500  0.00000000  0.33333334
   0.34765500  0.00000000  0.50000000
   0.34765500  0.00000000  0.66666669
   0.34765500  0.00000000  0.83333331
   0.34765500  0.50000000  0.00000000
   0.34765500  0.50000000  0.16666667
   0.34765500  0.50000000  0.33333334
   0.34765500  0.50000000  0.50000000
   0.34765500  0.50000000  0.66666669
   0.34765500  0.50000000  0.83333331
   0.84765500  0.00000000  0.00000000
   0.84765500  0.00000000  0.16666667
   0.84765500  0.00000000  0.33333334
   0.84765500  0.00000000  0.50000000
   0.84765500  0.00000000  0.66666669
   0.84765500  0.00000000  0.83333331
   0.84765500  0.50000000  0.00000000
   0.84765500  0.50000000  0.16666667
   0.84765500  0.50000000  0.33333334
   0.84765500  0.50000000  0.50000000
   0.84765500  0.50000000  0.66666669
   0.84765500  0.50000000  0.83333331
   0.00000000  0.40234500  0.08333334
   0.00000000  0.40234500  0.25000000
   0.00000000  0.40234500  0.41666666
   0.00000000  0.40234500  0.58333331
   0.00000000  0.40234500  0.75000000
   0.00000000  0.40234500  0.91666669
   0.00000000  0.90234500  0.08333334
   0.00000000  0.90234500  0.25000000
   0.00000000  0.90234500  0.41666666
   0.00000000  0.90234500  0.58333331
   0.00000000  0.90234500  0.75000000
   0.00000000  0.90234500  0.91666669
   0.50000000  0.40234500  0.08333334
   0.50000000  0.40234500  0.25000000
   0.50000000  0.40234500  0.41666666
   0.50000000  0.40234500  0.58333331
   0.50000000  0.40234500  0.75000000
   0.50000000  0.40234500  0.91666669
   0.50000000  0.90234500  0.08333334
   0.50000000  0.90234500  0.25000000
   0.50000000  0.90234500  0.41666666
   0.50000000  0.90234500  0.58333331
   0.50000000  0.90234500  0.75000000
   0.50000000  0.90234500  0.91666669
   0.25000000  0.15234500  0.08333334
   0.25000000  0.15234500  0.25000000
   0.25000000  0.15234500  0.41666666
   0.25000000  0.15234500  0.58333331
   0.25000000  0.15234500  0.75000000
   0.25000000  0.15234500  0.91666669
   0.25000000  0.65234500  0.08333334
   0.25000000  0.65234500  0.25000000
   0.25000000  0.65234500  0.41666666
   0.25000000  0.65234500  0.58333331
   0.25000000  0.65234500  0.75000000
   0.25000000  0.65234500  0.91666669
   0.75000000  0.15234500  0.08333334
   0.75000000  0.15234500  0.25000000
   0.75000000  0.15234500  0.41666666
   0.75000000  0.15234500  0.58333331
   0.75000000  0.15234500  0.75000000
   0.75000000  0.15234500  0.91666669
   0.75000000  0.65234500  0.08333334
   0.75000000  0.65234500  0.25000000
   0.75000000  0.65234500  0.41666666
   0.75000000  0.65234500  0.58333331
   0.75000000  0.65234500  0.75000000
   0.75000000  0.65234500  0.91666669
   0.00000000  0.09765500  0.08333334
   0.00000000  0.09765500  0.25000000
   0.00000000  0.09765500  0.41666666
   0.00000000  0.09765500  0.58333331
   0.00000000  0.09765500  0.75000000
   0.00000000  0.09765500  0.91666669
   0.00000000  0.59765500  0.08333334
   0.00000000  0.59765500  0.25000000
   0.00000000  0.59765500  0.41666666
   0.00000000  0.59765500  0.58333331
   0.00000000  0.59765500  0.75000000
   0.00000000  0.59765500  0.91666669
   0.50000000  0.09765500  0.08333334
   0.50000000  0.09765500  0.25000000
   0.50000000  0.09765500  0.41666666
   0.50000000  0.09765500  0.58333331
   0.50000000  0.09765500  0.75000000
   0.50000000  0.09765500  0.91666669
   0.50000000  0.59765500  0.08333334
   0.50000000  0.59765500  0.25000000
   0.50000000  0.59765500  0.41666666
   0.50000000  0.59765500  0.58333331
   0.50000000  0.59765500  0.75000000
   0.50000000  0.59765500  0.91666669
   0.25000000  0.34765500  0.08333334
   0.25000000  0.34765500  0.25000000
   0.25000000  0.34765500  0.41666666
   0.25000000  0.34765500  0.58333331
   0.25000000  0.34765500  0.75000000
   0.25000000  0.34765500  0.91666669
   0.25000000  0.84765500  0.08333334
   0.25000000  0.84765500  0.25000000
   0.25000000  0.84765500  0.41666666
   0.25000000  0.84765500  0.58333331
   0.25000000  0.84765500  0.75000000
   0.25000000  0.84765500  0.91666669
   0.75000000  0.34765500  0.08333334
   0.75000000  0.34765500  0.25000000
   0.75000000  0.34765500  0.41666666
   0.75000000  0.34765500  0.58333331
   0.75000000  0.34765500  0.75000000
   0.75000000  0.34765500  0.91666669
   0.75000000  0.84765500  0.08333334
   0.75000000  0.84765500  0.25000000
   0.75000000  0.84765500  0.41666666
   0.75000000  0.84765500  0.58333331
   0.75000000  0.84765500  0.75000000
   0.75000000  0.84765500  0.91666669
 
 position of ions in cartesian coordinates  (Angst):
   0.00000000  0.00000000  0.00000000
   0.00000000  0.00000000  2.95407019
   0.00000000  0.00000000  5.90814035
   0.00000000  0.00000000  8.86221027
   0.00000000  0.00000000 11.81628073
   0.00000000  0.00000000 14.77035010
   0.00000000  6.48651600  0.00000000
   0.00000000  6.48651600  2.95407019
   0.00000000  6.48651600  5.90814035
   0.00000000  6.48651600  8.86221027
   0.00000000  6.48651600 11.81628073
   0.00000000  6.48651600 14.77035010
   6.48651600  0.00000000  0.00000000
   6.48651600  0.00000000  2.95407019
   6.48651600  0.00000000  5.90814035
   6.48651600  0.00000000  8.86221027
   6.48651600  0.00000000 11.81628073
   6.48651600  0.00000000 14.77035010
   6.48651600  6.48651600  0.00000000
   6.48651600  6.48651600  2.95407019
   6.48651600  6.48651600  5.90814035
   6.48651600  6.48651600  8.86221027
   6.48651600  6.48651600 11.81628073
   6.48651600  6.48651600 14.77035010
   3.24325800  3.24325800  0.00000000
   3.24325800  3.24325800  2.95407019
   3.24325800  3.24325800  5.90814035
   3.24325800  3.24325800  8.86221027
   3.24325800  3.24325800 11.81628073
   3.24325800  3.24325800 14.77035010
   3.24325800  9.72977400  0.00000000
   3.24325800  9.72977400  2.95407019
   3.24325800  9.72977400  5.90814035
   3.24325800  9.72977400  8.86221027
   3.24325800  9.72977400 11.81628073
   3.24325800  9.72977400 14.77035010
   9.72977400  3.24325800  0.00000000
   9.72977400  3.24325800  2.95407019
   9.72977400  3.24325800  5.90814035
   9.72977400  3.24325800  8.86221027
   9.72977400  3.24325800 11.81628073
   9.72977400  3.24325800 14.77035010
   9.72977400  9.72977400  0.00000000
   9.72977400  9.72977400  2.95407019
   9.72977400  9.72977400  5.90814035
   9.72977400  9.72977400  8.86221027
   9.72977400  9.72977400 11.81628073
   9.72977400  9.72977400 14.77035010
   0.00000000  3.24325800  1.47703509
   0.00000000  3.24325800  4.43110514
   0.00000000  3.24325800  7.38517506
   0.00000000  3.24325800 10.33924496
   0.00000000  3.24325800 13.29331541
   0.00000000  3.24325800 16.24738586
   0.00000000  9.72977400  1.47703509
   0.00000000  9.72977400  4.43110514
   0.00000000  9.72977400  7.38517506
   0.00000000  9.72977400 10.33924496
   0.00000000  9.72977400 13.29331541
   0.00000000  9.72977400 16.24738586
   6.48651600  3.24325800  1.47703509
   6.48651600  3.24325800  4.43110514
   6.48651600  3.24325800  7.38517506
   6.48651600  3.24325800 10.33924496
   6.48651600  3.24325800 13.29331541
   6.48651600  3.24325800 16.24738586
   6.48651600  9.72977400  1.47703509
   6.48651600  9.72977400  4.43110514
   6.48651600  9.72977400  7.38517506
   6.48651600  9.72977400 10.33924496
   6.48651600  9.72977400 13.29331541
   6.48651600  9.72977400 16.24738586
   3.24325800  0.00000000  1.47703509
   3.24325800  0.00000000  4.43110514
   3.24325800  0.00000000  7.38517506
   3.24325800  0.00000000 10.33924496
   3.24325800  0.00000000 13.29331541
   3.24325800  0.00000000 16.24738586
   3.24325800  6.48651600  1.47703509
   3.24325800  6.48651600  4.43110514
   3.24325800  6.48651600  7.38517506
   3.24325800  6.48651600 10.33924496
   3.24325800  6.48651600 13.29331541
   3.24325800  6.48651600 16.24738586
   9.72977400  0.00000000  1.47703509
   9.72977400  0.00000000  4.43110514
   9.72977400  0.00000000  7.38517506
   9.72977400  0.00000000 10.33924496
   9.72977400  0.00000000 13.29331541
   9.72977400  0.00000000 16.24738586
   9.72977400  6.48651600  1.47703509
   9.72977400  6.48651600  4.43110514
   9.72977400  6.48651600  7.38517506
   9.72977400  6.48651600 10.33924496
   9.72977400  6.48651600 13.29331541
   9.72977400  6.48651600 16.24738586
   5.21963459  3.24325800  0.00000000
   5.21963459  3.24325800  2.95407019
   5.21963459  3.24325800  5.90814035
   5.21963459  3.24325800  8.86221027
   5.21963459  3.24325800 11.81628073
   5.21963459  3.24325800 14.77035010
   5.21963459  9.72977400  0.00000000
   5.21963459  9.72977400  2.95407019
   5.21963459  9.72977400  5.90814035
   5.21963459  9.72977400  8.86221027
   5.21963459  9.72977400 11.81628073
   5.21963459  9.72977400 14.77035010
  11.70615058  3.24325800  0.00000000
  11.70615058  3.24325800  2.95407019
  11.70615058  3.24325800  5.90814035
  11.70615058  3.24325800  8.86221027
  11.70615058  3.24325800 11.81628073
  11.70615058  3.24325800 14.77035010
  11.70615058  9.72977400  0.00000000
  11.70615058  9.72977400  2.95407019
  11.70615058  9.72977400  5.90814035
  11.70615058  9.72977400  8.86221027
  11.70615058  9.72977400 11.81628073
  11.70615058  9.72977400 14.77035010
   1.97637659  0.00000000  0.00000000
   1.97637659  0.00000000  2.95407019
   1.97637659  0.00000000  5.90814035
   1.97637659  0.00000000  8.86221027
   1.97637659  0.00000000 11.81628073
   1.97637659  0.00000000 14.77035010
   1.97637659  6.48651600  0.00000000
   1.97637659  6.48651600  2.95407019
   1.97637659  6.48651600  5.90814035
   1.97637659  6.48651600  8.86221027
   1.97637659  6.48651600 11.81628073
   1.97637659  6.48651600 14.77035010
   8.46289258  0.00000000  0.00000000
   8.46289258  0.00000000  2.95407019
   8.46289258  0.00000000  5.90814035
   8.46289258  0.00000000  8.86221027
   8.46289258  0.00000000 11.81628073
   8.46289258  0.00000000 14.77035010
   8.46289258  6.48651600  0.00000000
   8.46289258  6.48651600  2.95407019
   8.46289258  6.48651600  5.90814035
   8.46289258  6.48651600  8.86221027
   8.46289258  6.48651600 11.81628073
   8.46289258  6.48651600 14.77035010
   1.26688141  3.24325800  0.00000000
   1.26688141  3.24325800  2.95407019
   1.26688141  3.24325800  5.90814035
   1.26688141  3.24325800  8.86221027
   1.26688141  3.24325800 11.81628073
   1.26688141  3.24325800 14.77035010
   1.26688141  9.72977400  0.00000000
   1.26688141  9.72977400  2.95407019
   1.26688141  9.72977400  5.90814035
   1.26688141  9.72977400  8.86221027
   1.26688141  9.72977400 11.81628073
   1.26688141  9.72977400 14.77035010
   7.75339741  3.24325800  0.00000000
   7.75339741  3.24325800  2.95407019
   7.75339741  3.24325800  5.90814035
   7.75339741  3.24325800  8.86221027
   7.75339741  3.24325800 11.81628073
   7.75339741  3.24325800 14.77035010
   7.75339741  9.72977400  0.00000000
   7.75339741  9.72977400  2.95407019
   7.75339741  9.72977400  5.90814035
   7.75339741  9.72977400  8.86221027
   7.75339741  9.72977400 11.81628073
   7.75339741  9.72977400 14.77035010
   4.51013941  0.00000000  0.00000000
   4.51013941  0.00000000  2.95407019
   4.51013941  0.00000000  5.90814035
   4.51013941  0.00000000  8.86221027
   4.51013941  0.00000000 11.81628073
   4.51013941  0.00000000 14.77035010
   4.51013941  6.48651600  0.00000000
   4.51013941  6.48651600  2.95407019
   4.51013941  6.48651600  5.90814035
   4.51013941  6.48651600  8.86221027
   4.51013941  6.48651600 11.81628073
   4.51013941  6.48651600 14.77035010
  10.99665541  0.00000000  0.00000000
  10.99665541  0.00000000  2.95407019
  10.99665541  0.00000000  5.90814035
  10.99665541  0.00000000  8.86221027
  10.99665541  0.00000000 11.81628073
  10.99665541  0.00000000 14.77035010
  10.99665541  6.48651600  0.00000000
  10.99665541  6.48651600  2.95407019
  10.99665541  6.48651600  5.90814035
  10.99665541  6.48651600  8.86221027
  10.99665541  6.48651600 11.81628073
  10.99665541  6.48651600 14.77035010
   0.00000000  5.21963459  1.47703509
   0.00000000  5.21963459  4.43110514
   0.00000000  5.21963459  7.38517506
   0.00000000  5.21963459 10.33924496
   0.00000000  5.21963459 13.29331541
   0.00000000  5.21963459 16.24738586
   0.00000000 11.70615058  1.47703509
   0.00000000 11.70615058  4.43110514
   0.00000000 11.70615058  7.38517506
   0.00000000 11.70615058 10.33924496
   0.00000000 11.70615058 13.29331541
   0.00000000 11.70615058 16.24738586
   6.48651600  5.21963459  1.47703509
   6.48651600  5.21963459  4.43110514
   6.48651600  5.21963459  7.38517506
   6.48651600  5.21963459 10.33924496
   6.48651600  5.21963459 13.29331541
   6.48651600  5.21963459 16.24738586
   6.48651600 11.70615058  1.47703509
   6.48651600 11.70615058  4.43110514
   6.48651600 11.70615058  7.38517506
   6.48651600 11.70615058 10.33924496
   6.48651600 11.70615058 13.29331541
   6.48651600 11.70615058 16.24738586
   3.24325800  1.97637659  1.47703509
   3.24325800  1.97637659  4.43110514
   3.24325800  1.97637659  7.38517506
   3.24325800  1.97637659 10.33924496
   3.24325800  1.97637659 13.29331541
   3.24325800  1.97637659 16.24738586
   3.24325800  8.46289258  1.47703509
   3.24325800  8.46289258  4.43110514
   3.24325800  8.46289258  7.38517506
   3.24325800  8.46289258 10.33924496
   3.24325800  8.46289258 13.29331541
   3.24325800  8.46289258 16.24738586
   9.72977400  1.97637659  1.47703509
   9.72977400  1.97637659  4.43110514
   9.72977400  1.97637659  7.38517506
   9.72977400  1.97637659 10.33924496
   9.72977400  1.97637659 13.29331541
   9.72977400  1.97637659 16.24738586
   9.72977400  8.46289258  1.47703509
   9.72977400  8.46289258  4.43110514
   9.72977400  8.46289258  7.38517506
   9.72977400  8.46289258 10.33924496
   9.72977400  8.46289258 13.29331541
   9.72977400  8.46289258 16.24738586
   0.00000000  1.26688141  1.47703509
   0.00000000  1.26688141  4.43110514
   0.00000000  1.26688141  7.38517506
   0.00000000  1.26688141 10.33924496
   0.00000000  1.26688141 13.29331541
   0.00000000  1.26688141 16.24738586
   0.00000000  7.75339741  1.47703509
   0.00000000  7.75339741  4.43110514
   0.00000000  7.75339741  7.38517506
   0.00000000  7.75339741 10.33924496
   0.00000000  7.75339741 13.29331541
   0.00000000  7.75339741 16.24738586
   6.48651600  1.26688141  1.47703509
   6.48651600  1.26688141  4.43110514
   6.48651600  1.26688141  7.38517506
   6.48651600  1.26688141 10.33924496
   6.48651600  1.26688141 13.29331541
   6.48651600  1.26688141 16.24738586
   6.48651600  7.75339741  1.47703509
   6.48651600  7.75339741  4.43110514
   6.48651600  7.75339741  7.38517506
   6.48651600  7.75339741 10.33924496
   6.48651600  7.75339741 13.29331541
   6.48651600  7.75339741 16.24738586
   3.24325800  4.51013941  1.47703509
   3.24325800  4.51013941  4.43110514
   3.24325800  4.51013941  7.38517506
   3.24325800  4.51013941 10.33924496
   3.24325800  4.51013941 13.29331541
   3.24325800  4.51013941 16.24738586
   3.24325800 10.99665541  1.47703509
   3.24325800 10.99665541  4.43110514
   3.24325800 10.99665541  7.38517506
   3.24325800 10.99665541 10.33924496
   3.24325800 10.99665541 13.29331541
   3.24325800 10.99665541 16.24738586
   9.72977400  4.51013941  1.47703509
   9.72977400  4.51013941  4.43110514
   9.72977400  4.51013941  7.38517506
   9.72977400  4.51013941 10.33924496
   9.72977400  4.51013941 13.29331541
   9.72977400  4.51013941 16.24738586
   9.72977400 10.99665541  1.47703509
   9.72977400 10.99665541  4.43110514
   9.72977400 10.99665541  7.38517506
   9.72977400 10.99665541 10.33924496
   9.72977400 10.99665541 13.29331541
   9.72977400 10.99665541 16.24738586
 


--------------------------------------------------------------------------------------------------------


 use parallel FFT for wavefunctions z direction half grid
 k-point  1 :   0.0000 0.0000 0.0000  plane waves:   13433

 maximum and minimum number of plane-waves per node :      3362     3355

 maximum number of plane-waves:     13433
 maximum index in each direction: 
   IXMAX=   16   IYMAX=   16   IZMAX=   22
   IXMIN=  -16   IYMIN=  -16   IZMIN=    0

 WARNING: aliasing errors must be expected set NGX to  66 to avoid them
 WARNING: aliasing errors must be expected set NGY to  66 to avoid them
 WARNING: aliasing errors must be expected set NGZ to  90 to avoid them
 aliasing errors are usually negligible using standard VASP settings
 and one can safely disregard these warnings

 real space projection operators:
  total allocation   :      22521.19 KBytes
  max/ min on nodes  :       6037.91       5222.69


 parallel 3D FFT for wavefunctions:
    minimum data exchange during FFTs selected (reduces bandwidth)
 parallel 3D FFT for charge:
    minimum data exchange during FFTs selected (reduces bandwidth)


 total amount of memory used by VASP MPI-rank0    57603. kBytes
=======================================================================

   base      :      30000. kBytes
   nonlr-proj:       1817. kBytes
   fftplans  :       4246. kBytes
   grid      :       7374. kBytes
   one-center:        388. kBytes
   wavefun   :      13778. kBytes
 
     INWAV:  cpu time    0.0000: real time    0.0000
 Broyden mixing: mesh for mixing (old mesh)
   NGX = 33   NGY = 33   NGZ = 45
  (NGX  =100   NGY  =100   NGZ  =140)
  gives a total of  49005 points

 initial charge density was supplied:
 charge density of overlapping atoms calculated
 number of electron    1536.0000000 magnetization 
 keeping initial charge density in first step


--------------------------------------------------------------------------------------------------------


 Maximum index for non-local projection operator          396
 Maximum index for augmentation-charges          556 (set IRDMAX)


--------------------------------------------------------------------------------------------------------


 First call to EWALD:  gamma=   0.123
 Maximum number of real-space cells 3x 3x 2
 Maximum number of reciprocal cells 3x 3x 3

    FEWALD:  cpu time    0.0216: real time    0.0216


--------------------------------------- Iteration      1(   1)  ---------------------------------------


    POTLOK:  cpu time    0.0666: real time    0.0676
    SETDIJ:  cpu time    0.0352: real time    0.0371
     EDDAV:  cpu time    5.1064: real time    5.1376
       DOS:  cpu time    0.0009: real time    0.0009
    --------------------------------------------
      LOOP:  cpu time    5.2092: real time    5.2432

 eigenvalue-minimisations  :  1880
 total energy-change (2. order) : 0.1896275E+05  (-0.4598372E+05)
 number of electron    1536.0000000 magnetization 
 augmentation part     1536.0000000 magnetization 

 Free energy of the ion-electron system (eV)
  ---------------------------------------------------
  alpha Z        PSCENC =      6149.63965932
  Ewald energy   TEWEN  =    -75917.25823667
  -Hartree energ DENC   =    -20551.69452015
  -exchange      EXHF   =         0.00000000
  -V(xc)+E(xc)   XCENC  =      1724.01678937
  PAW double counting   =     78128.36971615   -74934.69987732
  entropy T*S    EENTRO =        -0.06635684
  eigenvalues    EBANDS =     12296.26470417
  atomic energy  EATOM  =     92068.17677998
  Solvation  Ediel_sol  =         0.00000000
  ---------------------------------------------------
  free energy    TOTEN  =     18962.74865800 eV

  energy without entropy =    18962.81501484  energy(sigma->0) =    18962.78183642


--------------------------------------------------------------------------------------------------------




--------------------------------------- Iteration      1(   2)  ---------------------------------------


     EDDAV:  cpu time    5.9033: real time    5.9044
       DOS:  cpu time    0.0009: real time    0.0009
    --------------------------------------------
      LOOP:  cpu time    5.9042: real time    5.9053

 eigenvalue-minimisations  :  2272
 total energy-change (2. order) :-0.1681653E+05  (-0.1623435E+05)
 number of electron    1536.0000000 magnetization 
 augmentation part     1536.0000000 magnetization 

 Free energy of the ion-electron system (eV)
  ---------------------------------------------------
  alpha Z        PSCENC =      6149.63965932
  Ewald energy   TEWEN  =    -75917.25823667
  -Hartree energ DENC   =    -20551.69452015
  -exchange      EXHF   =         0.00000000
  -V(xc)+E(xc)   XCENC  =      1724.01678937
  PAW double counting   =     78128.36971615   -74934.69987732
  entropy T*S    EENTRO =        -0.15297247
  eigenvalues    EBANDS =     -4520.17618191
  atomic energy  EATOM  =     92068.17677998
  Solvation  Ediel_sol  =         0.00000000
  ---------------------------------------------------
  free energy    TOTEN  =      2146.22115629 eV

  energy without entropy =     2146.37412877  energy(sigma->0) =     2146.29764253


--------------------------------------------------------------------------------------------------------




--------------------------------------- Iteration      1(   3)  ---------------------------------------


     EDDAV:  cpu time    5.5406: real time    5.5384
       DOS:  cpu time    0.0009: real time    0.0009
    --------------------------------------------
      LOOP:  cpu time    5.5415: real time    5.5393

 eigenvalue-minimisations  :  2104
 total energy-change (2. order) :-0.4902753E+04  (-0.4796599E+04)
 number of electron    1536.0000000 magnetization 
 augmentation part     1536.0000000 magnetization 

 Free energy of the ion-electron system (eV)
  ---------------------------------------------------
  alpha Z        PSCENC =      6149.63965932
  Ewald energy   TEWEN  =    -75917.25823667
  -Hartree energ DENC   =    -20551.69452015
  -exchange      EXHF   =         0.00000000
  -V(xc)+E(xc)   XCENC  =      1724.01678937
  PAW double counting   =     78128.36971615   -74934.69987732
  entropy T*S    EENTRO =        -0.03513539
  eigenvalues    EBANDS =     -9423.04728049
  atomic energy  EATOM  =     92068.17677998
  Solvation  Ediel_sol  =         0.00000000
  ---------------------------------------------------
  free energy    TOTEN  =     -2756.53210521 eV

  energy without entropy =    -2756.49696982  energy(sigma->0) =    -2756.51453751


--------------------------------------------------------------------------------------------------------




--------------------------------------- Iteration      1(   4)  ---------------------------------------


     EDDAV:  cpu time    5.9404: real time    5.9381
       DOS:  cpu time    0.0008: real time    0.0008
    --------------------------------------------
      LOOP:  cpu time    5.9413: real time    5.9390

 eigenvalue-minimisations  :  2320
 total energy-change (2. order) :-0.3645233E+03  (-0.3632371E+03)
 number of electron    1536.0000000 magnetization 
 augmentation part     1536.0000000 magnetization 

 Free energy of the ion-electron system (eV)
  ---------------------------------------------------
  alpha Z        PSCENC =      6149.63965932
  Ewald energy   TEWEN  =    -75917.25823667
  -Hartree energ DENC   =    -20551.69452015
  -exchange      EXHF   =         0.00000000
  -V(xc)+E(xc)   XCENC  =      1724.01678937
  PAW double counting   =     78128.36971615   -74934.69987732
  entropy T*S    EENTRO =        -0.02820948
  eigenvalues    EBANDS =     -9787.57747059
  atomic energy  EATOM  =     92068.17677998
  Solvation  Ediel_sol  =         0.00000000
  ---------------------------------------------------
  free energy    TOTEN  =     -3121.05536940 eV

  energy without entropy =    -3121.02715992  energy(sigma->0) =    -3121.04126466


--------------------------------------------------------------------------------------------------------




--------------------------------------- Iteration      1(   5)  ---------------------------------------


     EDDAV:  cpu time    5.6514: real time    5.6495
       DOS:  cpu time    0.0009: real time    0.0009
    CHARGE:  cpu time    0.1187: real time    0.1187
    MIXING:  cpu time    0.0023: real time    0.0024
    --------------------------------------------
      LOOP:  cpu time    5.7733: real time    5.7714

 eigenvalue-minimisations  :  2176
 total energy-change (2. order) :-0.7055435E+01  (-0.7034183E+01)
 number of electron    1536.9977910 magnetization 
 augmentation part      342.0453947 magnetization 

 Broyden mixing:
  rms(total) = 0.30197E+02    rms(broyden)= 0.30194E+02
  rms(prec ) = 0.31431E+02
  weight for this iteration     100.00

 Free energy of the ion-electron system (eV)
  ---------------------------------------------------
  alpha Z        PSCENC =      6149.63965932
  Ewald energy   TEWEN  =    -75917.25823667
  -Hartree energ DENC   =    -20551.69452015
  -exchange      EXHF   =         0.00000000
  -V(xc)+E(xc)   XCENC  =      1724.01678937
  PAW double counting   =     78128.36971615   -74934.69987732
  entropy T*S    EENTRO =        -0.02820958
  eigenvalues    EBANDS =     -9794.63290515
  atomic energy  EATOM  =     92068.17677998
  Solvation  Ediel_sol  =         0.00000000
  ---------------------------------------------------
  free energy    TOTEN  =     -3128.11080406 eV

  energy without entropy =    -3128.08259448  energy(sigma->0) =    -3128.09669927


--------------------------------------------------------------------------------------------------------




--------------------------------------- Iteration      1(   6)  ---------------------------------------


    POTLOK:  cpu time    0.0625: real time    0.0657
    SETDIJ:  cpu time    0.0357: real time    0.0357
    EDDIAG:  cpu time    0.6613: real time    0.6611
  RMM-DIIS:  cpu time    2.0570: real time    2.0616
    ORTHCH:  cpu time    0.2535: real time    0.2558
       DOS:  cpu time    0.0007: real time    0.0007
    CHARGE:  cpu time    0.1205: real time    0.1205
    MIXING:  cpu time    0.0023: real time    0.0023
    --------------------------------------------
      LOOP:  cpu time    3.1937: real time    3.2035

 eigenvalue-minimisations  :  1848
 total energy-change (2. order) : 0.8793438E+03  (-0.5601818E+03)
 number of electron    1536.9981744 magnetization 
 augmentation part      317.8942930 magnetization 

 Broyden mixing:
  rms(total) = 0.31254E+02    rms(broyden)= 0.31252E+02
  rms(prec ) = 0.31296E+02
  weight for this iteration     100.00

 eigenvalues of (default mixing * dielectric matrix)
  average eigenvalue GAMMA=   0.4549
  0.4549

 Free energy of the ion-electron system (eV)
  ---------------------------------------------------
  alpha Z        PSCENC =      6149.63965932
  Ewald energy   TEWEN  =    -75917.25823667
  -Hartree energ DENC   =    -24577.78501184
  -exchange      EXHF   =         0.00000000
  -V(xc)+E(xc)   XCENC  =      2099.90483992
  PAW double counting   =    113075.82908739  -110099.54893781
  entropy T*S    EENTRO =        -0.05724986
  eigenvalues    EBANDS =     -5047.66795159
  atomic energy  EATOM  =     92068.17677998
  Solvation  Ediel_sol  =         0.00000000
  ---------------------------------------------------
  free energy    TOTEN  =     -2248.76702115 eV

  energy without entropy =    -2248.70977129  energy(sigma->0) =    -2248.73839622


--------------------------------------------------------------------------------------------------------




--------------------------------------- Iteration      1(   7)  ---------------------------------------


    POTLOK:  cpu time    0.0621: real time    0.0621
    SETDIJ:  cpu time    0.0357: real time    0.0357
    EDDIAG:  cpu time    0.6703: real time    0.6700
  RMM-DIIS:  cpu time    2.0583: real time    2.0626
    ORTHCH:  cpu time    0.2516: real time    0.2541
       DOS:  cpu time    0.0010: real time    0.0007
    CHARGE:  cpu time    0.1252: real time    0.1254
    MIXING:  cpu time    0.0024: real time    0.0024
    --------------------------------------------
      LOOP:  cpu time    3.2066: real time    3.2132

 eigenvalue-minimisations  :  1885
 total energy-change (2. order) : 0.3012453E+02  (-0.7692816E+01)
 number of electron    1536.9981587 magnetization 
 augmentation part      322.7050037 magnetization 

 Broyden mixing:
  rms(total) = 0.22844E+02    rms(broyden)= 0.22844E+02
  rms(prec ) = 0.22876E+02
  weight for this iteration     100.00

 eigenvalues of (default mixing * dielectric matrix)
  average eigenvalue GAMMA=   1.3460
  1.1213  1.5707

 Free energy of the ion-electron system (eV)
  ---------------------------------------------------
  alpha Z        PSCENC =      6149.63965932
  Ewald energy   TEWEN  =    -75917.25823667
  -Hartree energ DENC   =    -24144.91013451
  -exchange      EXHF   =         0.00000000
  -V(xc)+E(xc)   XCENC  =      2073.11465846
  PAW double counting   =    135134.92542335  -132121.30468152
  entropy T*S    EENTRO =        -0.05847832
  eigenvalues    EBANDS =     -5460.96747723
  atomic energy  EATOM  =     92068.17677998
  Solvation  Ediel_sol  =         0.00000000
  ---------------------------------------------------
  free energy    TOTEN  =     -2218.64248716 eV

  energy without entropy =    -2218.58400883  energy(sigma->0) =    -2218.61324799


--------------------------------------------------------------------------------------------------------




--------------------------------------- Iteration      1(   8)  ---------------------------------------


    POTLOK:  cpu time    0.0647: real time    0.0646
    SETDIJ:  cpu time    0.0369: real time    0.0369
    EDDIAG:  cpu time    0.6775: real time    0.6800
  RMM-DIIS:  cpu time    2.0548: real time    2.0570
    ORTHCH:  cpu time    0.2539: real time    0.2562
       DOS:  cpu time    0.0007: real time    0.0007
    CHARGE:  cpu time    0.1206: real time    0.1206
    MIXING:  cpu time    0.0026: real time    0.0026
    --------------------------------------------
      LOOP:  cpu time    3.2118: real time    3.2187

 eigenvalue-minimisations  :  1870
 total energy-change (2. order) :-0.6165530E+01  (-0.2803521E+02)
 number of electron    1536.9980283 magnetization 
 augmentation part      329.3599484 magnetization 

 Broyden mixing:
  rms(total) = 0.41942E+01    rms(broyden)= 0.41933E+01
  rms(prec ) = 0.43871E+01
  weight for this iteration     100.00

 eigenvalues of (default mixing * dielectric matrix)
  average eigenvalue GAMMA=   1.3189
  2.2869  0.8349  0.8349

 Free energy of the ion-electron system (eV)
  ---------------------------------------------------
  alpha Z        PSCENC =      6149.63965932
  Ewald energy   TEWEN  =    -75917.25823667
  -Hartree energ DENC   =    -23113.46876490
  -exchange      EXHF   =         0.00000000
  -V(xc)+E(xc)   XCENC  =      2009.74255877
  PAW double counting   =    206432.71662529  -203343.53405277
  entropy T*S    EENTRO =        -0.05012494
  eigenvalues    EBANDS =     -6510.77246117
  atomic energy  EATOM  =     92068.17677998
  Solvation  Ediel_sol  =         0.00000000
  ---------------------------------------------------
  free energy    TOTEN  =     -2224.80801711 eV

  energy without entropy =    -2224.75789217  energy(sigma->0) =    -2224.78295464


--------------------------------------------------------------------------------------------------------




--------------------------------------- Iteration      1(   9)  ---------------------------------------


    POTLOK:  cpu time    0.0618: real time    0.0618
    SETDIJ:  cpu time    0.0363: real time    0.0363
    EDDIAG:  cpu time    0.6733: real time    0.6755
  RMM-DIIS:  cpu time    2.0683: real time    2.0727
    ORTHCH:  cpu time    0.2539: real time    0.2538
       DOS:  cpu time    0.0008: real time    0.0007
    CHARGE:  cpu time    0.1198: real time    0.1198
    MIXING:  cpu time    0.0028: real time    0.0028
    --------------------------------------------
      LOOP:  cpu time    3.2170: real time    3.2234

 eigenvalue-minimisations  :  1852
 total energy-change (2. order) : 0.1538173E+02  (-0.7909991E+01)
 number of electron    1536.9980627 magnetization 
 augmentation part      330.9890774 magnetization 

 Broyden mixing:
  rms(total) = 0.12186E+01    rms(broyden)= 0.12179E+01
  rms(prec ) = 0.12266E+01
  weight for this iteration     100.00

 eigenvalues of (default mixing * dielectric matrix)
  average eigenvalue GAMMA=   1.1668
  2.1631  0.9448  0.7796  0.7796

 Free energy of the ion-electron system (eV)
  ---------------------------------------------------
  alpha Z        PSCENC =      6149.63965932
  Ewald energy   TEWEN  =    -75917.25823667
  -Hartree energ DENC   =    -23524.12604012
  -exchange      EXHF   =         0.00000000
  -V(xc)+E(xc)   XCENC  =      2053.54624493
  PAW double counting   =    224355.82230277  -221270.28242691
  entropy T*S    EENTRO =        -0.05401343
  eigenvalues    EBANDS =     -6124.89056180
  atomic energy  EATOM  =     92068.17677998
  Solvation  Ediel_sol  =         0.00000000
  ---------------------------------------------------
  free energy    TOTEN  =     -2209.42629193 eV

  energy without entropy =    -2209.37227850  energy(sigma->0) =    -2209.39928522


--------------------------------------------------------------------------------------------------------




--------------------------------------- Iteration      1(  10)  ---------------------------------------


    POTLOK:  cpu time    0.0617: real time    0.0617
    SETDIJ:  cpu time    0.0356: real time    0.0355
    EDDIAG:  cpu time    0.6691: real time    0.6710
  RMM-DIIS:  cpu time    2.0762: real time    2.0802
    ORTHCH:  cpu time    0.2547: real time    0.2546
       DOS:  cpu time    0.0008: real time    0.0008
    CHARGE:  cpu time    0.1231: real time    0.1230
    MIXING:  cpu time    0.0031: real time    0.0031
    --------------------------------------------
      LOOP:  cpu time    3.2241: real time    3.2298

 eigenvalue-minimisations  :  1877
 total energy-change (2. order) :-0.1785247E+00  (-0.8116625E-01)
 number of electron    1536.9980600 magnetization 
[...]
      9.72977      1.96327     10.33885        -0.000001     -0.001591      0.002530
      9.72978      1.96299     13.29332        -0.000034      0.005034     -0.000152
      9.72977      1.96326     16.24778        -0.000021     -0.001303     -0.002364
      9.72977      8.44979      1.47664        -0.000006     -0.001726      0.002582
      9.72978      8.44950      4.43111        -0.000007      0.005421      0.000066
      9.72978      8.44979      7.38557        -0.000000     -0.001682     -0.002628
      9.72978      8.44980     10.33886         0.000005     -0.002103      0.002183
      9.72978      8.44953     13.29332        -0.000016      0.004265     -0.000043
      9.72978      8.44979     16.24777        -0.000004     -0.001898     -0.002169
      0.00000      1.27959      1.47728         0.000029     -0.002020     -0.004524
     -0.00000      1.27982      4.43110         0.000009     -0.001772      0.000039
     -0.00000      1.27960      7.38492        -0.000012     -0.002128      0.004438
      0.00000      1.27958     10.33950         0.000003     -0.001614     -0.004747
      0.00000      1.27981     13.29332        -0.000009     -0.001368     -0.000055
      0.00000      1.27959     16.24713         0.000012     -0.001742      0.004807
     -0.00000      7.76610      1.47729        -0.000003     -0.001794     -0.004641
     -0.00000      7.76633      4.43111        -0.000001     -0.001020     -0.000025
      0.00000      7.76610      7.38492        -0.000017     -0.001682      0.004579
     -0.00000      7.76610     10.33950        -0.000006     -0.001548     -0.004640
      0.00000      7.76633     13.29331        -0.000009     -0.001432      0.000044
      0.00000      7.76610     16.24713        -0.000006     -0.001665      0.004690
      6.48652      1.27958      1.47728        -0.000021     -0.001270     -0.004449
      6.48651      1.27981      4.43110        -0.000031     -0.000974      0.000118
      6.48652      1.27959      7.38492         0.000000     -0.001795      0.004420
      6.48652      1.27958     10.33950         0.000008     -0.001637     -0.004617
      6.48652      1.27981     13.29331        -0.000009     -0.001006      0.000026
      6.48652      1.27958     16.24713        -0.000010     -0.001420      0.004524
      6.48652      7.76610      1.47729        -0.000020     -0.001634     -0.004545
      6.48652      7.76634      4.43110        -0.000019     -0.001474     -0.000005
      6.48652      7.76611      7.38492        -0.000006     -0.001918      0.004608
      6.48652      7.76610     10.33950        -0.000010     -0.001739     -0.004723
      6.48652      7.76633     13.29331        -0.000008     -0.001272      0.000034
      6.48652      7.76610     16.24713         0.000003     -0.001905      0.004685
      3.24326      4.52323      1.47665         0.000029      0.002127      0.002294
      3.24326      4.52351      4.43110         0.000028     -0.004735      0.000084
      3.24326      4.52324      7.38557         0.000025      0.001832     -0.002719
      3.24326      4.52324     10.33885        -0.000002      0.001901      0.002552
      3.24326      4.52352     13.29331         0.000026     -0.004907      0.000091
      3.24326      4.52325     16.24778         0.000019      0.001357     -0.002273
      3.24326     11.00975      1.47664         0.000005      0.002179      0.002576
      3.24326     11.01003      4.43111         0.000004     -0.004740     -0.000062
      3.24326     11.00976      7.38557         0.000023      0.001777     -0.002505
      3.24326     11.00976     10.33885         0.000018      0.001715      0.002314
      3.24326     11.01003     13.29331         0.000025     -0.004753      0.000028
      3.24326     11.00975     16.24778         0.000015      0.001939     -0.002339
      9.72978      4.52323      1.47665        -0.000012      0.002125      0.002255
      9.72978      4.52352      4.43110        -0.000020     -0.004875      0.000218
      9.72978      4.52324      7.38557        -0.000014      0.001949     -0.002460
      9.72978      4.52324     10.33885         0.000016      0.001882      0.002528
      9.72977      4.52351     13.29332        -0.000024     -0.004624     -0.000163
      9.72978      4.52324     16.24778        -0.000011      0.001726     -0.002349
      9.72977     11.00976      1.47664        -0.000016      0.001547      0.002533
      9.72978     11.01005      4.43110        -0.000010     -0.005308      0.000072
      9.72978     11.00976      7.38557        -0.000007      0.001672     -0.002597
      9.72978     11.00976     10.33885        -0.000014      0.001838      0.002231
      9.72978     11.01003     13.29331        -0.000019     -0.004694     -0.000011
      9.72978     11.00977     16.24777        -0.000022      0.001386     -0.002194
 -----------------------------------------------------------------------------------
    total drift:                                0.000049     -0.000010      0.000086


--------------------------------------------------------------------------------------------------------



  FREE ENERGIE OF THE ION-ELECTRON SYSTEM (eV)
  ---------------------------------------------------
  free  energy   TOTEN  =     -2210.17648190 eV

  energy  without entropy=    -2210.12586329  energy(sigma->0) =    -2210.15117260
 
 d Force =-0.1030517E-04[-0.336E-03, 0.315E-03]  d Energy =-0.1335618E-05-0.897E-05
 d Force = 0.7712760E-01[ 0.741E-01, 0.801E-01]  d Ewald  = 0.7712758E-01 0.137E-07


--------------------------------------------------------------------------------------------------------


    POTLOK:  cpu time    0.1010: real time    0.1009


--------------------------------------------------------------------------------------------------------


 Quasi-Newton relaxation of ions (Broydens 2nd method)
  g(Force)  = 0.419E-03   g(Stress)= 0.000E+00

 retain information from N=  2 steps
 eigenvalues of (default step * inverse Hessian matrix)
  average eigenvalue of G=   0.6073
 eigenvalue spectrum of G is  0.7902  0.4244


--------------------------------------------------------------------------------------------------------


  
 reached required accuracy - stopping structural energy minimisation
 writing wavefunctions
     LOOP+:  cpu time   16.2450: real time   17.3128
    4ORBIT:  cpu time    0.0000: real time    0.0000
 


 total charge     
 
# of ion       s       p       d       tot
------------------------------------------
    1        0.569   1.149   2.446   4.164
    2        0.570   1.149   2.447   4.167
    3        0.570   1.149   2.447   4.167
    4        0.569   1.149   2.446   4.164
    5        0.570   1.149   2.447   4.167
    6        0.570   1.149   2.447   4.167
    7        0.569   1.149   2.446   4.164
    8        0.570   1.149   2.447   4.167
    9        0.570   1.149   2.447   4.167
   10        0.569   1.149   2.446   4.164
   11        0.570   1.149   2.447   4.167
   12        0.570   1.149   2.447   4.166
   13        0.569   1.149   2.446   4.164
   14        0.570   1.149   2.447   4.166
   15        0.570   1.149   2.447   4.166
   16        0.569   1.149   2.446   4.164
   17        0.570   1.149   2.447   4.166
   18        0.570   1.149   2.447   4.166
   19        0.569   1.149   2.446   4.164
   20        0.570   1.149   2.447   4.166
   21        0.570   1.149   2.447   4.166
   22        0.569   1.149   2.446   4.164
   23        0.570   1.149   2.447   4.166
   24        0.570   1.149   2.447   4.166
   25        0.570   1.149   2.448   4.167
   26        0.569   1.148   2.446   4.164
   27        0.569   1.148   2.446   4.164
   28        0.570   1.149   2.448   4.167
   29        0.569   1.148   2.446   4.164
   30        0.569   1.148   2.446   4.164
   31        0.570   1.149   2.448   4.167
   32        0.569   1.148   2.446   4.164
   33        0.569   1.148   2.446   4.164
   34        0.570   1.149   2.448   4.167
   35        0.569   1.148   2.446   4.164
   36        0.569   1.148   2.446   4.164
   37        0.570   1.149   2.448   4.167
   38        0.569   1.148   2.446   4.164
   39        0.569   1.148   2.446   4.164
   40        0.570   1.149   2.448   4.167
   41        0.569   1.148   2.446   4.164
   42        0.569   1.148   2.446   4.164
   43        0.570   1.149   2.447   4.167
   44        0.569   1.148   2.446   4.164
   45        0.569   1.148   2.446   4.164
   46        0.570   1.149   2.448   4.167
   47        0.569   1.148   2.446   4.164
   48        0.569   1.148   2.446   4.164
   49        0.569   1.148   2.446   4.164
   50        0.570   1.150   2.448   4.168
   51        0.569   1.148   2.446   4.164
   52        0.569   1.148   2.446   4.164
   53        0.570   1.150   2.448   4.168
   54        0.569   1.148   2.446   4.164
   55        0.569   1.148   2.446   4.164
   56        0.570   1.150   2.448   4.168
   57        0.569   1.148   2.446   4.164
   58        0.569   1.148   2.446   4.164
   59        0.570   1.150   2.448   4.168
   60        0.569   1.148   2.446   4.164
   61        0.569   1.148   2.446   4.164
   62        0.570   1.150   2.448   4.168
   63        0.569   1.148   2.446   4.164
   64        0.569   1.148   2.446   4.164
   65        0.570   1.150   2.448   4.168
   66        0.569   1.148   2.446   4.164
   67        0.569   1.148   2.446   4.164
   68        0.570   1.150   2.448   4.168
   69        0.569   1.148   2.446   4.164
   70        0.569   1.148   2.446   4.164
   71        0.570   1.150   2.448   4.168
   72        0.569   1.148   2.446   4.164
   73        0.569   1.149   2.446   4.164
   74        0.570   1.150   2.448   4.169
   75        0.569   1.149   2.446   4.164
   76        0.569   1.149   2.446   4.164
   77        0.570   1.150   2.448   4.169
   78        0.569   1.149   2.446   4.164
   79        0.569   1.149   2.446   4.164
   80        0.570   1.150   2.448   4.169
   81        0.569   1.149   2.446   4.164
   82        0.569   1.149   2.446   4.164
   83        0.570   1.150   2.448   4.169
   84        0.569   1.149   2.446   4.164
   85        0.569   1.149   2.446   4.164
   86        0.570   1.150   2.448   4.169
   87        0.569   1.149   2.446   4.164
   88        0.569   1.149   2.446   4.164
   89        0.570   1.150   2.448   4.169
   90        0.569   1.149   2.446   4.164
   91        0.569   1.149   2.446   4.164
   92        0.570   1.150   2.448   4.169
   93        0.569   1.149   2.446   4.164
   94        0.569   1.149   2.446   4.164
   95        0.570   1.150   2.448   4.169
   96        0.569   1.149   2.446   4.164
   97        1.796   4.257   0.000   6.053
   98        1.796   4.257   0.000   6.053
   99        1.796   4.257   0.000   6.053
  100        1.796   4.257   0.000   6.053
  101        1.796   4.257   0.000   6.053
  102        1.796   4.257   0.000   6.053
  103        1.796   4.257   0.000   6.053
  104        1.796   4.257   0.000   6.053
  105        1.796   4.257   0.000   6.053
  106        1.796   4.257   0.000   6.053
  107        1.796   4.257   0.000   6.053
  108        1.796   4.257   0.000   6.053
  109        1.796   4.257   0.000   6.053
  110        1.796   4.257   0.000   6.053
  111        1.796   4.257   0.000   6.053
  112        1.796   4.257   0.000   6.053
  113        1.796   4.257   0.000   6.053
  114        1.796   4.257   0.000   6.053
  115        1.796   4.257   0.000   6.053
  116        1.796   4.257   0.000   6.053
  117        1.796   4.257   0.000   6.053
  118        1.796   4.257   0.000   6.053
  119        1.796   4.257   0.000   6.053
  120        1.796   4.257   0.000   6.053
  121        1.796   4.257   0.000   6.053
  122        1.796   4.257   0.000   6.053
  123        1.796   4.257   0.000   6.053
  124        1.796   4.257   0.000   6.053
  125        1.796   4.257   0.000   6.053
  126        1.796   4.257   0.000   6.053
  127        1.796   4.257   0.000   6.053
  128        1.796   4.257   0.000   6.053
  129        1.796   4.257   0.000   6.053
  130        1.796   4.257   0.000   6.053
  131        1.796   4.257   0.000   6.053
  132        1.796   4.257   0.000   6.053
  133        1.796   4.257   0.000   6.053
  134        1.796   4.257   0.000   6.053
  135        1.796   4.257   0.000   6.053
  136        1.796   4.257   0.000   6.053
  137        1.796   4.257   0.000   6.053
  138        1.796   4.257   0.000   6.053
  139        1.796   4.257   0.000   6.053
  140        1.796   4.257   0.000   6.053
  141        1.796   4.257   0.000   6.053
  142        1.796   4.257   0.000   6.053
  143        1.796   4.257   0.000   6.053
  144        1.796   4.257   0.000   6.053
  145        1.796   4.257   0.000   6.053
  146        1.796   4.257   0.000   6.053
  147        1.796   4.257   0.000   6.053
  148        1.796   4.257   0.000   6.053
  149        1.796   4.257   0.000   6.053
  150        1.796   4.257   0.000   6.053
  151        1.796   4.257   0.000   6.053
  152        1.796   4.257   0.000   6.053
  153        1.796   4.257   0.000   6.053
  154        1.796   4.257   0.000   6.053
  155        1.796   4.257   0.000   6.053
  156        1.796   4.257   0.000   6.053
  157        1.796   4.257   0.000   6.053
  158        1.796   4.257   0.000   6.053
  159        1.796   4.257   0.000   6.053
  160        1.796   4.257   0.000   6.053
  161        1.796   4.257   0.000   6.053
  162        1.796   4.257   0.000   6.053
  163        1.796   4.257   0.000   6.053
  164        1.796   4.257   0.000   6.053
  165        1.796   4.257   0.000   6.053
  166        1.796   4.257   0.000   6.053
  167        1.796   4.257   0.000   6.053
  168        1.796   4.257   0.000   6.053
  169        1.796   4.257   0.000   6.053
  170        1.796   4.257   0.000   6.053
  171        1.796   4.257   0.000   6.053
  172        1.796   4.257   0.000   6.053
  173        1.796   4.257   0.000   6.053
  174        1.796   4.257   0.000   6.053
  175        1.796   4.257   0.000   6.053
  176        1.796   4.257   0.000   6.053
  177        1.796   4.257   0.000   6.053
  178        1.796   4.257   0.000   6.053
  179        1.796   4.257   0.000   6.053
  180        1.796   4.257   0.000   6.053
  181        1.796   4.257   0.000   6.053
  182        1.796   4.257   0.000   6.053
  183        1.796   4.257   0.000   6.053
  184        1.796   4.257   0.000   6.053
  185        1.796   4.257   0.000   6.053
  186        1.796   4.257   0.000   6.053
  187        1.796   4.257   0.000   6.053
  188        1.796   4.257   0.000   6.053
  189        1.796   4.257   0.000   6.053
  190        1.796   4.257   0.000   6.053
  191        1.796   4.257   0.000   6.053
  192        1.796   4.257   0.000   6.053
  193        1.796   4.257   0.000   6.053
  194        1.796   4.257   0.000   6.053
  195        1.796   4.257   0.000   6.053
  196        1.796   4.257   0.000   6.053
  197        1.796   4.257   0.000   6.053
  198        1.796   4.257   0.000   6.053
  199        1.796   4.257   0.000   6.053
  200        1.796   4.257   0.000   6.053
  201        1.796   4.257   0.000   6.053
  202        1.796   4.257   0.000   6.053
  203        1.796   4.257   0.000   6.053
  204        1.796   4.257   0.000   6.053
  205        1.796   4.257   0.000   6.053
  206        1.796   4.257   0.000   6.053
  207        1.796   4.257   0.000   6.053
  208        1.796   4.257   0.000   6.053
  209        1.796   4.257   0.000   6.053
  210        1.796   4.257   0.000   6.053
  211        1.796   4.257   0.000   6.053
  212        1.796   4.257   0.000   6.053
  213        1.796   4.257   0.000   6.053
  214        1.796   4.257   0.000   6.053
  215        1.796   4.257   0.000   6.053
  216        1.796   4.257   0.000   6.053
  217        1.796   4.257   0.000   6.053
  218        1.796   4.257   0.000   6.053
  219        1.796   4.257   0.000   6.053
  220        1.796   4.257   0.000   6.053
  221        1.796   4.257   0.000   6.053
  222        1.796   4.257   0.000   6.053
  223        1.796   4.257   0.000   6.053
  224        1.796   4.257   0.000   6.053
  225        1.796   4.257   0.000   6.053
  226        1.796   4.257   0.000   6.053
  227        1.796   4.257   0.000   6.053
  228        1.796   4.257   0.000   6.053
  229        1.796   4.257   0.000   6.053
  230        1.796   4.257   0.000   6.053
  231        1.796   4.257   0.000   6.053
  232        1.796   4.257   0.000   6.053
  233        1.796   4.257   0.000   6.053
  234        1.796   4.257   0.000   6.053
  235        1.796   4.257   0.000   6.053
  236        1.796   4.257   0.000   6.053
  237        1.796   4.257   0.000   6.053
  238        1.796   4.257   0.000   6.053
  239        1.796   4.257   0.000   6.053
  240        1.796   4.257   0.000   6.053
  241        1.796   4.257   0.000   6.053
  242        1.796   4.257   0.000   6.053
  243        1.796   4.257   0.000   6.053
  244        1.796   4.257   0.000   6.053
  245        1.796   4.257   0.000   6.053
  246        1.796   4.257   0.000   6.053
  247        1.796   4.257   0.000   6.053
  248        1.796   4.257   0.000   6.053
  249        1.796   4.257   0.000   6.053
  250        1.796   4.257   0.000   6.053
  251        1.796   4.257   0.000   6.053
  252        1.796   4.257   0.000   6.053
  253        1.796   4.257   0.000   6.053
  254        1.796   4.257   0.000   6.053
  255        1.796   4.257   0.000   6.053
  256        1.796   4.257   0.000   6.053
  257        1.796   4.257   0.000   6.053
  258        1.796   4.257   0.000   6.053
  259        1.796   4.257   0.000   6.053
  260        1.796   4.257   0.000   6.053
  261        1.796   4.257   0.000   6.053
  262        1.796   4.257   0.000   6.053
  263        1.796   4.257   0.000   6.053
  264        1.796   4.257   0.000   6.053
  265        1.796   4.257   0.000   6.053
  266        1.796   4.257   0.000   6.053
  267        1.796   4.257   0.000   6.053
  268        1.796   4.257   0.000   6.053
  269        1.796   4.257   0.000   6.053
  270        1.796   4.257   0.000   6.053
  271        1.796   4.257   0.000   6.053
  272        1.796   4.257   0.000   6.053
  273        1.796   4.257   0.000   6.053
  274        1.796   4.257   0.000   6.053
  275        1.796   4.257   0.000   6.053
  276        1.796   4.257   0.000   6.053
  277        1.796   4.257   0.000   6.053
  278        1.796   4.257   0.000   6.053
  279        1.796   4.257   0.000   6.053
  280        1.796   4.257   0.000   6.053
  281        1.796   4.257   0.000   6.053
  282        1.796   4.257   0.000   6.053
  283        1.796   4.257   0.000   6.053
  284        1.796   4.257   0.000   6.053
  285        1.796   4.257   0.000   6.053
  286        1.796   4.257   0.000   6.053
  287        1.796   4.257   0.000   6.053
  288        1.796   4.257   0.000   6.053
--------------------------------------------------
tot        399.543 927.650 234.8901562.083
 

 total amount of memory used by VASP MPI-rank0    57603. kBytes
=======================================================================

   base      :      30000. kBytes
   nonlr-proj:       1817. kBytes
   fftplans  :       4246. kBytes
   grid      :       7374. kBytes
   one-center:        388. kBytes
   wavefun   :      13778. kBytes
 
  
  
 General timing and accounting informations for this job:
 ========================================================
  
                  Total CPU time used (sec):      156.931
                            User time (sec):      154.630
                          System time (sec):        2.301
                         Elapsed time (sec):      159.844
  
                   Maximum memory used (kb):      121356.
                   Average memory used (kb):           0.
  
                          Minor page faults:       449220
                          Major page faults:           17
                 Voluntary context switches:         2395
