--------------------------------------------------------------------------------
Starting prologue for job 175937, user michele (734), group users (100) at Tue Nov 19 12:07:02 2019
Jobname is 'tio2-del' in queue 'fugu.q'
running on host fugu01 (IP 192.168.4.19)
prologue finished for job 175937, status OK, spent 0.49 seconds
--------------------------------------------------------------------------------
 running on   16 total cores
 distrk:  each k-point on   16 cores,    1 groups
 distr:  one band on    4 cores,    4 groups
 using from now: INCAR     
 vasp.5.4.3 09Sep16 (build Mar 08 2017 15:13:11) gamma-only                     
  
 POSCAR found type information on POSCAR  Ti O 
 POSCAR found :  2 types and     288 ions
 scaLAPACK will be used
 LDA part: xc-table for Pade appr. of Perdew
 POSCAR, INCAR and KPOINTS ok, starting setup
 WARNING: small aliasing (wrap around) errors must be expected
 FFT: planning ...
 WAVECAR not read
 entering main loop
       N       E                     dE             d eps       ncg     rms          rms(c)
DAV:   1     0.189627486580E+05    0.18963E+05   -0.45984E+05  1880   0.104E+03
DAV:   2     0.214622115629E+04   -0.16817E+05   -0.16234E+05  2272   0.377E+02
DAV:   3    -0.275653210521E+04   -0.49028E+04   -0.47966E+04  2104   0.212E+02
DAV:   4    -0.312105536940E+04   -0.36452E+03   -0.36324E+03  2320   0.655E+01
DAV:   5    -0.312811080406E+04   -0.70554E+01   -0.70342E+01  2176   0.920E+00BRMIX: very serious problems
 the old and the new charge density differ
 old charge density:  1536.00000 new 1536.99779
    0.302E+02
RMM:   6    -0.224876702115E+04    0.87934E+03   -0.56018E+03  1848   0.779E+01    0.313E+02
RMM:   7    -0.221864248716E+04    0.30125E+02   -0.76928E+01  1885   0.116E+01    0.228E+02
RMM:   8    -0.222480801711E+04   -0.61655E+01   -0.28035E+02  1870   0.196E+01    0.419E+01
RMM:   9    -0.220942629193E+04    0.15382E+02   -0.79100E+01  1852   0.927E+00    0.122E+01
RMM:  10    -0.220960481660E+04   -0.17852E+00   -0.81166E-01  1877   0.122E+00    0.103E+01
RMM:  11    -0.220989743831E+04   -0.29262E+00   -0.93036E-01  1862   0.122E+00    0.526E+00
RMM:  12    -0.220978649536E+04    0.11094E+00   -0.12447E+00  1860   0.107E+00    0.133E+00
RMM:  13    -0.220979661719E+04   -0.10122E-01   -0.15853E-01  1918   0.460E-01    0.913E-01
RMM:  14    -0.220978548446E+04    0.11133E-01   -0.28829E-02  1860   0.222E-01    0.351E-01
RMM:  15    -0.220978521067E+04    0.27379E-03   -0.89255E-03  1908   0.981E-02    0.161E-01
RMM:  16    -0.220978534041E+04   -0.12975E-03   -0.10121E-03  1633   0.356E-02    0.149E-01
RMM:  17    -0.220978543840E+04   -0.97989E-04   -0.14971E-04  1118   0.130E-02
   1 F= -.22097854E+04 E0= -.22097591E+04  d E =-.220979E+04
 BRION: g(F)=  0.933E+00 g(S)=  0.000E+00
 bond charge predicted
       N       E                     dE             d eps       ncg     rms          rms(c)
DAV:   1    -0.220964857548E+04    0.13676E+00   -0.14507E+02  2064   0.154E+01    0.992E+00
RMM:   2    -0.221037194381E+04   -0.72337E+00   -0.75609E+00  1862   0.322E+00    0.732E+00
RMM:   3    -0.221021166034E+04    0.16028E+00   -0.40281E-01  1858   0.868E-01    0.344E+00
RMM:   4    -0.221021272512E+04   -0.10648E-02   -0.98833E-01  1849   0.109E+00    0.341E+00
RMM:   5    -0.221019832401E+04    0.14401E-01   -0.81406E-02  1857   0.300E-01    0.241E+00
RMM:   6    -0.221016149894E+04    0.36825E-01   -0.18777E-01  1849   0.463E-01    0.776E-01
RMM:   7    -0.221016470660E+04   -0.32077E-02   -0.43801E-02  1880   0.218E-01    0.382E-01
RMM:   8    -0.221016314754E+04    0.15591E-02   -0.50709E-03  1848   0.803E-02    0.107E-01
RMM:   9    -0.221016322076E+04   -0.73216E-04   -0.18278E-03  1658   0.433E-02    0.105E-01
RMM:  10    -0.221016310976E+04    0.11100E-03   -0.18854E-04  1105   0.189E-02    0.478E-02
RMM:  11    -0.221016310087E+04    0.88889E-05   -0.26603E-04  1242   0.151E-02
   2 F= -.22101631E+04 E0= -.22101379E+04  d E =-.377662E+00
 BRION: g(F)=  0.321E-01 g(S)=  0.000E+00 retain N=  1 mean eig= 0.84
 eig:   0.844
 bond charge predicted
       N       E                     dE             d eps       ncg     rms          rms(c)
DAV:   1    -0.221016424560E+04   -0.11358E-02   -0.35508E+00  2040   0.241E+00    0.156E+00
RMM:   2    -0.221017825403E+04   -0.14008E-01   -0.14276E-01  1862   0.438E-01    0.262E-01
RMM:   3    -0.221017649893E+04    0.17551E-02   -0.41509E-03  1927   0.854E-02    0.963E-02
RMM:   4    -0.221017648324E+04    0.15686E-04   -0.12227E-04  1096   0.156E-02
   3 F= -.22101765E+04 E0= -.22101512E+04  d E =-.133824E-01
 BRION: g(F)=  0.327E-03 g(S)=  0.000E+00 retain N=  1 mean eig= 0.82
 eig:   0.825
 bond charge predicted
       N       E                     dE             d eps       ncg     rms          rms(c)
DAV:   1    -0.221017648039E+04    0.18533E-04   -0.30862E-02  1944   0.219E-01    0.182E-01
RMM:   2    -0.221017653852E+04   -0.58126E-04   -0.26979E-03  1859   0.604E-02    0.121E-01
RMM:   3    -0.221017648190E+04    0.56615E-04   -0.11274E-04  1088   0.136E-02
   4 F= -.22101765E+04 E0= -.22101512E+04  d E =0.133562E-05
 BRION: g(F)=  0.419E-03 g(S)=  0.000E+00 retain N=  2 mean eig= 0.61
 eig:   0.790  0.424
 reached required accuracy - stopping structural energy minimisation
 writing wavefunctions
--------------------------------------------------------------------------------
Starting epilogue for job 175937, user michele (734), group users (100) at Tue Nov 19 12:09:45 2019
Jobname is 'tio2-del' in queue 'fugu.q'
Resources used:
  key         value       info
  ----------------------------
  elapsed      0:00:02:41
  exit_status 0            (no failure)
  time_wall    0:00:02:41
epilogue finished for job 175937, status OK, spent 0.42 seconds
--------------------------------------------------------------------------------
